# vtk DataFile Version 3.0
Resultado Projeto 3
ASCII
DATASET STRUCTURED_GRID
DIMENSIONS 70 30 1 
POINTS 2100 double
0.000000e+00 0.000000e+00 0.000000e+00
5.072464e-02 0.000000e+00 0.000000e+00
1.014493e-01 0.000000e+00 0.000000e+00
1.521739e-01 0.000000e+00 0.000000e+00
2.028986e-01 0.000000e+00 0.000000e+00
2.536232e-01 0.000000e+00 0.000000e+00
3.043478e-01 0.000000e+00 0.000000e+00
3.550725e-01 0.000000e+00 0.000000e+00
4.057971e-01 0.000000e+00 0.000000e+00
4.565217e-01 0.000000e+00 0.000000e+00
5.072464e-01 0.000000e+00 0.000000e+00
5.579710e-01 0.000000e+00 0.000000e+00
6.086957e-01 0.000000e+00 0.000000e+00
6.594203e-01 0.000000e+00 0.000000e+00
7.101449e-01 0.000000e+00 0.000000e+00
7.608696e-01 0.000000e+00 0.000000e+00
8.115942e-01 0.000000e+00 0.000000e+00
8.623188e-01 0.000000e+00 0.000000e+00
9.130435e-01 0.000000e+00 0.000000e+00
9.637681e-01 0.000000e+00 0.000000e+00
1.014493e+00 0.000000e+00 0.000000e+00
1.065217e+00 0.000000e+00 0.000000e+00
1.115942e+00 0.000000e+00 0.000000e+00
1.166667e+00 0.000000e+00 0.000000e+00
1.217391e+00 0.000000e+00 0.000000e+00
1.268116e+00 0.000000e+00 0.000000e+00
1.318841e+00 0.000000e+00 0.000000e+00
1.369565e+00 0.000000e+00 0.000000e+00
1.420290e+00 0.000000e+00 0.000000e+00
1.471014e+00 0.000000e+00 0.000000e+00
1.521739e+00 0.000000e+00 0.000000e+00
1.572464e+00 0.000000e+00 0.000000e+00
1.623188e+00 0.000000e+00 0.000000e+00
1.673913e+00 0.000000e+00 0.000000e+00
1.724638e+00 0.000000e+00 0.000000e+00
1.775362e+00 0.000000e+00 0.000000e+00
1.826087e+00 0.000000e+00 0.000000e+00
1.876812e+00 0.000000e+00 0.000000e+00
1.927536e+00 0.000000e+00 0.000000e+00
1.978261e+00 0.000000e+00 0.000000e+00
2.028986e+00 0.000000e+00 0.000000e+00
2.079710e+00 0.000000e+00 0.000000e+00
2.130435e+00 0.000000e+00 0.000000e+00
2.181159e+00 0.000000e+00 0.000000e+00
2.231884e+00 0.000000e+00 0.000000e+00
2.282609e+00 0.000000e+00 0.000000e+00
2.333333e+00 0.000000e+00 0.000000e+00
2.384058e+00 0.000000e+00 0.000000e+00
2.434783e+00 0.000000e+00 0.000000e+00
2.485507e+00 0.000000e+00 0.000000e+00
2.536232e+00 0.000000e+00 0.000000e+00
2.586957e+00 0.000000e+00 0.000000e+00
2.637681e+00 0.000000e+00 0.000000e+00
2.688406e+00 0.000000e+00 0.000000e+00
2.739130e+00 0.000000e+00 0.000000e+00
2.789855e+00 0.000000e+00 0.000000e+00
2.840580e+00 0.000000e+00 0.000000e+00
2.891304e+00 0.000000e+00 0.000000e+00
2.942029e+00 0.000000e+00 0.000000e+00
2.992754e+00 0.000000e+00 0.000000e+00
3.043478e+00 0.000000e+00 0.000000e+00
3.094203e+00 0.000000e+00 0.000000e+00
3.144928e+00 0.000000e+00 0.000000e+00
3.195652e+00 0.000000e+00 0.000000e+00
3.246377e+00 0.000000e+00 0.000000e+00
3.297101e+00 0.000000e+00 0.000000e+00
3.347826e+00 0.000000e+00 0.000000e+00
3.398551e+00 0.000000e+00 0.000000e+00
3.449275e+00 0.000000e+00 0.000000e+00
3.500000e+00 0.000000e+00 0.000000e+00
0.000000e+00 3.448276e-02 0.000000e+00
5.072464e-02 3.448276e-02 0.000000e+00
1.014493e-01 3.448276e-02 0.000000e+00
1.521739e-01 3.448276e-02 0.000000e+00
2.028986e-01 3.448276e-02 0.000000e+00
2.536232e-01 3.448276e-02 0.000000e+00
3.043478e-01 3.448276e-02 0.000000e+00
3.550725e-01 3.448276e-02 0.000000e+00
4.057971e-01 3.448276e-02 0.000000e+00
4.565217e-01 3.448276e-02 0.000000e+00
5.072464e-01 3.448276e-02 0.000000e+00
5.579710e-01 3.448276e-02 0.000000e+00
6.086957e-01 3.448276e-02 0.000000e+00
6.594203e-01 3.448276e-02 0.000000e+00
7.101449e-01 3.448276e-02 0.000000e+00
7.608696e-01 3.448276e-02 0.000000e+00
8.115942e-01 3.448276e-02 0.000000e+00
8.623188e-01 3.448276e-02 0.000000e+00
9.130435e-01 3.448276e-02 0.000000e+00
9.637681e-01 3.448276e-02 0.000000e+00
1.014493e+00 3.448276e-02 0.000000e+00
1.065217e+00 3.448276e-02 0.000000e+00
1.115942e+00 3.448276e-02 0.000000e+00
1.166667e+00 3.448276e-02 0.000000e+00
1.217391e+00 3.448276e-02 0.000000e+00
1.268116e+00 3.448276e-02 0.000000e+00
1.318841e+00 3.448276e-02 0.000000e+00
1.369565e+00 3.448276e-02 0.000000e+00
1.420290e+00 3.448276e-02 0.000000e+00
1.471014e+00 3.448276e-02 0.000000e+00
1.521739e+00 3.448276e-02 0.000000e+00
1.572464e+00 3.448276e-02 0.000000e+00
1.623188e+00 3.448276e-02 0.000000e+00
1.673913e+00 3.448276e-02 0.000000e+00
1.724638e+00 3.448276e-02 0.000000e+00
1.775362e+00 3.448276e-02 0.000000e+00
1.826087e+00 3.448276e-02 0.000000e+00
1.876812e+00 3.448276e-02 0.000000e+00
1.927536e+00 3.448276e-02 0.000000e+00
1.978261e+00 3.448276e-02 0.000000e+00
2.028986e+00 3.448276e-02 0.000000e+00
2.079710e+00 3.448276e-02 0.000000e+00
2.130435e+00 3.448276e-02 0.000000e+00
2.181159e+00 3.448276e-02 0.000000e+00
2.231884e+00 3.448276e-02 0.000000e+00
2.282609e+00 3.448276e-02 0.000000e+00
2.333333e+00 3.448276e-02 0.000000e+00
2.384058e+00 3.448276e-02 0.000000e+00
2.434783e+00 3.448276e-02 0.000000e+00
2.485507e+00 3.448276e-02 0.000000e+00
2.536232e+00 3.448276e-02 0.000000e+00
2.586957e+00 3.448276e-02 0.000000e+00
2.637681e+00 3.448276e-02 0.000000e+00
2.688406e+00 3.448276e-02 0.000000e+00
2.739130e+00 3.448276e-02 0.000000e+00
2.789855e+00 3.448276e-02 0.000000e+00
2.840580e+00 3.448276e-02 0.000000e+00
2.891304e+00 3.448276e-02 0.000000e+00
2.942029e+00 3.448276e-02 0.000000e+00
2.992754e+00 3.448276e-02 0.000000e+00
3.043478e+00 3.448276e-02 0.000000e+00
3.094203e+00 3.448276e-02 0.000000e+00
3.144928e+00 3.448276e-02 0.000000e+00
3.195652e+00 3.448276e-02 0.000000e+00
3.246377e+00 3.448276e-02 0.000000e+00
3.297101e+00 3.448276e-02 0.000000e+00
3.347826e+00 3.448276e-02 0.000000e+00
3.398551e+00 3.448276e-02 0.000000e+00
3.449275e+00 3.448276e-02 0.000000e+00
3.500000e+00 3.448276e-02 0.000000e+00
0.000000e+00 6.896552e-02 0.000000e+00
5.072464e-02 6.896552e-02 0.000000e+00
1.014493e-01 6.896552e-02 0.000000e+00
1.521739e-01 6.896552e-02 0.000000e+00
2.028986e-01 6.896552e-02 0.000000e+00
2.536232e-01 6.896552e-02 0.000000e+00
3.043478e-01 6.896552e-02 0.000000e+00
3.550725e-01 6.896552e-02 0.000000e+00
4.057971e-01 6.896552e-02 0.000000e+00
4.565217e-01 6.896552e-02 0.000000e+00
5.072464e-01 6.896552e-02 0.000000e+00
5.579710e-01 6.896552e-02 0.000000e+00
6.086957e-01 6.896552e-02 0.000000e+00
6.594203e-01 6.896552e-02 0.000000e+00
7.101449e-01 6.896552e-02 0.000000e+00
7.608696e-01 6.896552e-02 0.000000e+00
8.115942e-01 6.896552e-02 0.000000e+00
8.623188e-01 6.896552e-02 0.000000e+00
9.130435e-01 6.896552e-02 0.000000e+00
9.637681e-01 6.896552e-02 0.000000e+00
1.014493e+00 6.896552e-02 0.000000e+00
1.065217e+00 6.896552e-02 0.000000e+00
1.115942e+00 6.896552e-02 0.000000e+00
1.166667e+00 6.896552e-02 0.000000e+00
1.217391e+00 6.896552e-02 0.000000e+00
1.268116e+00 6.896552e-02 0.000000e+00
1.318841e+00 6.896552e-02 0.000000e+00
1.369565e+00 6.896552e-02 0.000000e+00
1.420290e+00 6.896552e-02 0.000000e+00
1.471014e+00 6.896552e-02 0.000000e+00
1.521739e+00 6.896552e-02 0.000000e+00
1.572464e+00 6.896552e-02 0.000000e+00
1.623188e+00 6.896552e-02 0.000000e+00
1.673913e+00 6.896552e-02 0.000000e+00
1.724638e+00 6.896552e-02 0.000000e+00
1.775362e+00 6.896552e-02 0.000000e+00
1.826087e+00 6.896552e-02 0.000000e+00
1.876812e+00 6.896552e-02 0.000000e+00
1.927536e+00 6.896552e-02 0.000000e+00
1.978261e+00 6.896552e-02 0.000000e+00
2.028986e+00 6.896552e-02 0.000000e+00
2.079710e+00 6.896552e-02 0.000000e+00
2.130435e+00 6.896552e-02 0.000000e+00
2.181159e+00 6.896552e-02 0.000000e+00
2.231884e+00 6.896552e-02 0.000000e+00
2.282609e+00 6.896552e-02 0.000000e+00
2.333333e+00 6.896552e-02 0.000000e+00
2.384058e+00 6.896552e-02 0.000000e+00
2.434783e+00 6.896552e-02 0.000000e+00
2.485507e+00 6.896552e-02 0.000000e+00
2.536232e+00 6.896552e-02 0.000000e+00
2.586957e+00 6.896552e-02 0.000000e+00
2.637681e+00 6.896552e-02 0.000000e+00
2.688406e+00 6.896552e-02 0.000000e+00
2.739130e+00 6.896552e-02 0.000000e+00
2.789855e+00 6.896552e-02 0.000000e+00
2.840580e+00 6.896552e-02 0.000000e+00
2.891304e+00 6.896552e-02 0.000000e+00
2.942029e+00 6.896552e-02 0.000000e+00
2.992754e+00 6.896552e-02 0.000000e+00
3.043478e+00 6.896552e-02 0.000000e+00
3.094203e+00 6.896552e-02 0.000000e+00
3.144928e+00 6.896552e-02 0.000000e+00
3.195652e+00 6.896552e-02 0.000000e+00
3.246377e+00 6.896552e-02 0.000000e+00
3.297101e+00 6.896552e-02 0.000000e+00
3.347826e+00 6.896552e-02 0.000000e+00
3.398551e+00 6.896552e-02 0.000000e+00
3.449275e+00 6.896552e-02 0.000000e+00
3.500000e+00 6.896552e-02 0.000000e+00
0.000000e+00 1.034483e-01 0.000000e+00
5.072464e-02 1.034483e-01 0.000000e+00
1.014493e-01 1.034483e-01 0.000000e+00
1.521739e-01 1.034483e-01 0.000000e+00
2.028986e-01 1.034483e-01 0.000000e+00
2.536232e-01 1.034483e-01 0.000000e+00
3.043478e-01 1.034483e-01 0.000000e+00
3.550725e-01 1.034483e-01 0.000000e+00
4.057971e-01 1.034483e-01 0.000000e+00
4.565217e-01 1.034483e-01 0.000000e+00
5.072464e-01 1.034483e-01 0.000000e+00
5.579710e-01 1.034483e-01 0.000000e+00
6.086957e-01 1.034483e-01 0.000000e+00
6.594203e-01 1.034483e-01 0.000000e+00
7.101449e-01 1.034483e-01 0.000000e+00
7.608696e-01 1.034483e-01 0.000000e+00
8.115942e-01 1.034483e-01 0.000000e+00
8.623188e-01 1.034483e-01 0.000000e+00
9.130435e-01 1.034483e-01 0.000000e+00
9.637681e-01 1.034483e-01 0.000000e+00
1.014493e+00 1.034483e-01 0.000000e+00
1.065217e+00 1.034483e-01 0.000000e+00
1.115942e+00 1.034483e-01 0.000000e+00
1.166667e+00 1.034483e-01 0.000000e+00
1.217391e+00 1.034483e-01 0.000000e+00
1.268116e+00 1.034483e-01 0.000000e+00
1.318841e+00 1.034483e-01 0.000000e+00
1.369565e+00 1.034483e-01 0.000000e+00
1.420290e+00 1.034483e-01 0.000000e+00
1.471014e+00 1.034483e-01 0.000000e+00
1.521739e+00 1.034483e-01 0.000000e+00
1.572464e+00 1.034483e-01 0.000000e+00
1.623188e+00 1.034483e-01 0.000000e+00
1.673913e+00 1.034483e-01 0.000000e+00
1.724638e+00 1.034483e-01 0.000000e+00
1.775362e+00 1.034483e-01 0.000000e+00
1.826087e+00 1.034483e-01 0.000000e+00
1.876812e+00 1.034483e-01 0.000000e+00
1.927536e+00 1.034483e-01 0.000000e+00
1.978261e+00 1.034483e-01 0.000000e+00
2.028986e+00 1.034483e-01 0.000000e+00
2.079710e+00 1.034483e-01 0.000000e+00
2.130435e+00 1.034483e-01 0.000000e+00
[...]
POINT_DATA 2100
SCALARS RES_Cont double
LOOKUP_TABLE default
0.000000e+00
0.000000e+00
0.000000e+00
0.000000e+00
0.000000e+00
0.000000e+00
0.000000e+00
0.000000e+00
0.000000e+00
0.000000e+00
0.000000e+00
0.000000e+00
0.000000e+00
0.000000e+00
0.000000e+00
0.000000e+00
0.000000e+00
0.000000e+00
0.000000e+00
0.000000e+00
0.000000e+00
0.000000e+00
0.000000e+00
0.000000e+00
0.000000e+00
0.000000e+00
0.000000e+00
0.000000e+00
0.000000e+00
0.000000e+00
0.000000e+00
0.000000e+00
0.000000e+00
0.000000e+00
0.000000e+00
0.000000e+00
0.000000e+00
0.000000e+00
0.000000e+00
0.000000e+00
0.000000e+00
0.000000e+00
0.000000e+00
0.000000e+00
0.000000e+00
0.000000e+00
0.000000e+00
0.000000e+00
0.000000e+00
0.000000e+00
0.000000e+00
0.000000e+00
0.000000e+00
0.000000e+00
0.000000e+00
0.000000e+00
0.000000e+00
0.000000e+00
0.000000e+00
0.000000e+00
0.000000e+00
0.000000e+00
0.000000e+00
0.000000e+00
0.000000e+00
0.000000e+00
0.000000e+00
0.000000e+00
0.000000e+00
0.000000e+00
0.000000e+00
7.763178e-19
-1.029852e-18
3.253211e-18
6.052745e-18
1.684930e-19
7.577173e-19
-2.375805e-18
-2.058396e-18
-3.669155e-18
6.095705e-18
-4.818616e-18
-7.013515e-18
-6.601988e-19
-3.722511e-19
-1.623308e-18
9.649963e-18
5.318757e-18
8.512746e-18
-9.700050e-18
2.905051e-18
6.307296e-18
-9.121133e-18
3.356962e-18
-1.277447e-17
-6.819621e-18
-7.777248e-18
1.330232e-18
-4.000080e-18
-4.584862e-18
-1.993651e-17
6.543265e-18
-7.730679e-18
-3.105950e-18
-1.598866e-17
1.527441e-17
8.651586e-18
-6.315914e-18
-1.069483e-17
7.946516e-18
3.067726e-17
-4.193172e-18
2.581067e-17
4.489673e-17
2.326442e-16
6.483568e-16
1.884632e-15
5.461438e-15
1.518069e-14
4.066418e-14
1.047881e-13
2.612021e-13
6.300552e-13
1.472310e-12
3.337915e-12
7.349573e-12
1.573382e-11
3.278235e-11
6.654184e-11
1.317029e-10
2.543974e-10
4.799504e-10
8.850655e-10
1.596466e-09
2.818652e-09
4.874124e-09
8.260108e-09
1.372638e-08
2.237904e-08
0.000000e+00
0.000000e+00
1.036995e-17
3.487372e-18
-9.533508e-20
-1.771384e-18
2.503339e-18
-4.610468e-18
1.188704e-17
1.532031e-18
1.109827e-18
4.097822e-18
1.427218e-17
-3.960451e-19
-3.726561e-18
-1.532544e-18
-2.272647e-18
-9.867032e-18
-4.486515e-19
-6.334633e-18
2.007446e-18
7.298820e-18
-3.260483e-18
3.923532e-18
-1.532470e-17
6.721946e-18
-9.857711e-18
-7.594874e-19
1.997785e-17
-5.341248e-18
-0.000000e+00
1.152166e-18
1.272280e-17
-1.354858e-17
6.607804e-18
7.805469e-18
-6.268914e-18
-1.573088e-17
6.314425e-18
1.682719e-17
-2.978330e-18
-1.672342e-17
1.357041e-17
2.089847e-17
4.107216e-17
1.384610e-16
5.226394e-16
1.512517e-15
4.347711e-15
1.205033e-14
3.220439e-14
8.327987e-14
2.081449e-13
5.033177e-13
1.178952e-12
2.678534e-12
5.909635e-12
1.267593e-11
2.645964e-11
5.380253e-11
1.066683e-10
2.063745e-10
3.899575e-10
7.201959e-10
1.300973e-09
2.300196e-09
3.983066e-09
6.759098e-09
1.124674e-08
1.835976e-08
0.000000e+00
0.000000e+00
-1.609988e-17
1.983937e-19
1.218794e-18
6.556021e-18
-7.788319e-19
-3.965815e-18
3.014948e-19
1.025103e-17
-1.153963e-17
8.152575e-18
9.944472e-19
-4.711601e-18
-2.707220e-18
-8.337941e-19
1.369219e-17
-1.221978e-18
1.663049e-17
-2.137313e-17
-2.220314e-18
1.734155e-17
5.530564e-18
-1.683740e-17
6.910800e-18
3.791041e-19
7.403925e-18
-1.902254e-19
5.721031e-18
1.912665e-18
-1.535255e-18
-1.733392e-17
-1.933167e-17
9.313722e-18
-5.063209e-18
3.908308e-18
5.881861e-18
2.399484e-17
-9.863401e-18
7.517532e-18
5.950898e-18
-6.662002e-18
1.534867e-17
3.435916e-17
1.531151e-17
1.291192e-16
4.503402e-16
1.340718e-15
3.997795e-15
1.120787e-14
3.010084e-14
7.819950e-14
1.961162e-13
4.757587e-13
1.117636e-12
2.546191e-12
5.631636e-12
1.210671e-11
2.532407e-11
5.159248e-11
1.024691e-10
1.985804e-10
3.758159e-10
6.950983e-10
1.257380e-09
2.226048e-09
3.859501e-09
6.557250e-09
1.092338e-08
1.785151e-08
0.000000e+00
0.000000e+00
8.467829e-18
1.767509e-18
-4.108903e-18
2.542729e-19
-1.059788e-17
2.276573e-18
7.080533e-19
-5.805058e-18
4.690276e-18
-1.315876e-17
-4.202844e-18
5.176106e-18
-6.097757e-18
-2.576689e-18
7.916278e-18
-1.197841e-17
1.605935e-18
-6.684574e-18
-8.788971e-18
9.359576e-18
-5.959499e-18
1.136085e-18
5.307915e-18
-4.366950e-18
-1.407890e-17
-1.525886e-18
1.262587e-17
-2.111263e-17
1.040068e-17
-3.865778e-19
3.491248e-18
8.951374e-18
1.561524e-18
-1.154889e-17
-4.121479e-18
-1.141153e-17
8.381933e-18
3.162924e-18
3.962737e-18
-6.553278e-18
9.752045e-18
9.174361e-18
2.712849e-17
1.433018e-16
4.368972e-16
1.290671e-15
3.635132e-15
1.025874e-14
2.790349e-14
7.288935e-14
1.836208e-13
4.472672e-13
1.055119e-12
2.412198e-12
5.352381e-12
1.153973e-11
2.420124e-11
4.942256e-11
9.837365e-11
1.910257e-10
3.621876e-10
6.710416e-10
1.215804e-09
2.155663e-09
3.742720e-09
6.367268e-09
1.062021e-08
1.737672e-08
0.000000e+00
0.000000e+00
1.829898e-18
2.575874e-18
5.945514e-18
-9.358475e-18
4.584742e-18
9.553733e-19
1.228634e-17
5.061693e-19
-1.122096e-18
1.409494e-17
-5.150277e-19
-7.279815e-18
1.555456e-18
-8.205524e-18
-2.019031e-18
-4.735154e-18
1.443216e-17
-9.450663e-20
7.043556e-18
-2.270425e-18
-2.367085e-18
5.498348e-18
-2.848658e-18
-1.122850e-17
2.594998e-17
-2.679399e-18
-1.152138e-18
9.249192e-18
7.734402e-19
1.629614e-17
-1.206505e-17
1.931871e-17
-3.716851e-18
7.058148e-18
7.858280e-19
4.920716e-18
1.705673e-17
3.753358e-18
-1.306202e-17
6.146820e-18
-1.539694e-17
2.493251e-17
1.321376e-17
9.302293e-17
3.244712e-16
1.137997e-15
3.261331e-15
9.315862e-15
2.542583e-14
6.692169e-14
1.698883e-13
4.163571e-13
9.871932e-13
2.267541e-12
5.052204e-12
1.093278e-11
2.300440e-11
4.711857e-11
9.404096e-11
1.830611e-10
3.478660e-10
6.458366e-10
1.172365e-09
2.082310e-09
3.621303e-09
6.170175e-09
1.030632e-08
1.688608e-08
0.000000e+00
0.000000e+00
-4.656857e-18
1.243499e-18
1.559099e-19
1.029640e-19
1.675301e-17
-1.420027e-17
4.332137e-18
4.043916e-18
-8.147060e-18
-1.636576e-18
-2.843743e-18
3.633326e-18
-3.453397e-18
-9.327673e-19
2.786777e-18
1.346381e-18
-2.835252e-18
1.659318e-17
-7.757837e-18
1.117398e-17
-1.137803e-18
7.598498e-18
-1.903844e-19
1.489011e-17
-1.302151e-17
-9.222793e-18
1.041192e-17
-2.321712e-17
5.434853e-18
9.149599e-18
-2.537316e-18
2.073560e-17
3.136004e-18
1.177995e-17
-1.769655e-18
6.300830e-18
-2.154013e-17
9.427214e-18
1.969643e-17
9.578363e-18
-1.487415e-17
1.904692e-17
1.477755e-17
1.064768e-16
3.665212e-16
9.268967e-16
2.847374e-15
8.275584e-15
2.276530e-14
6.050570e-14
1.548765e-13
3.825702e-13
9.132159e-13
2.110166e-12
4.726193e-12
1.027486e-11
2.170942e-11
4.463058e-11
8.937095e-11
1.744912e-10
3.324810e-10
6.188002e-10
1.125831e-09
2.003827e-09
3.491534e-09
5.959722e-09
9.971432e-09
1.636299e-08
0.000000e+00
0.000000e+00
1.654545e-18
-1.942058e-18
-4.616905e-18
-1.762409e-18
5.205596e-18
-1.781138e-18
4.642593e-18
-2.925993e-17
-9.695487e-19
3.600790e-18
-1.294240e-17
3.707226e-18
2.042638e-18
-1.453611e-17
1.129077e-17
-1.200278e-17
3.923898e-17
-1.580068e-17
4.640640e-18
1.536345e-17
2.280229e-18
4.571088e-18
1.184188e-17
-1.073023e-17
1.538190e-17
3.087231e-18
-1.200397e-17
6.992206e-18
2.064676e-17
-2.928937e-18
-3.913465e-19
1.411336e-17
-1.374163e-18
-2.682976e-17
3.089278e-17
-1.427988e-17
8.625328e-18
-6.388868e-18
-1.975413e-19
-9.455577e-18
7.202725e-18
3.105758e-17
2.358400e-18
6.492835e-17
2.485178e-16
7.794097e-16
2.438064e-15
7.102105e-15
1.987571e-14
5.367348e-14
1.386894e-13
3.461039e-13
8.333101e-13
1.939990e-12
4.373883e-12
9.564146e-12
2.031138e-11
4.194625e-11
8.433592e-11
1.652580e-10
3.159159e-10
5.897073e-10
1.075783e-09
1.919454e-09
3.352069e-09
5.733599e-09
9.611658e-09
1.580106e-08
0.000000e+00
0.000000e+00
-7.243954e-18
-3.087829e-19
4.322914e-18
-5.062042e-18
-3.977643e-18
2.791218e-18
-1.692386e-17
1.639893e-17
-1.914023e-18
6.820938e-18
-4.669437e-18
1.459359e-17
2.786773e-18
3.779352e-18
1.559441e-18
1.985663e-18
3.974123e-18
-0.000000e+00
-1.214161e-17
7.983312e-18
5.335239e-18
-1.223061e-17
7.669466e-19
-1.000552e-17
-6.951567e-18
-2.325103e-17
2.604502e-17
2.338852e-18
1.797380e-17
-9.396285e-18
-6.666601e-18
2.179357e-17
2.761567e-17
5.311725e-18
-1.068087e-17
-2.019436e-18
-1.111418e-17
1.196002e-17
-2.580037e-17
-1.293532e-17
3.547170e-17
-2.452778e-17
1.642115e-17
8.176453e-17
1.773266e-16
6.412335e-16
2.007671e-15
5.946818e-15
1.691496e-14
4.632600e-14
1.216846e-13
3.073871e-13
7.481213e-13
1.758269e-12
3.996848e-12
8.802995e-12
1.881348e-11
3.906954e-11
7.893951e-11
1.553619e-10
2.981619e-10
5.585267e-10
1.022144e-09
1.829020e-09
3.202573e-09
5.491171e-09
9.225853e-09
1.519829e-08
0.000000e+00
0.000000e+00
-1.805595e-18
2.145060e-19
1.511686e-17
5.182918e-18
-6.086067e-18
1.571635e-18
1.554890e-17
-3.318912e-18
-2.662254e-18
1.465170e-17
-4.722823e-19
-8.053271e-18
1.110186e-18
1.034915e-17
-7.942935e-18
-3.690534e-18
-2.463040e-18
3.036071e-18
8.366220e-18
-1.525044e-18
-9.178243e-18
1.688435e-17
-7.317260e-18
-1.120859e-17
3.878199e-19
3.578970e-17
-1.306732e-17
5.864435e-19
6.071390e-18
1.265182e-17
-1.040887e-17
-1.277813e-18
9.640303e-18
3.002213e-18
4.284137e-18
-4.926623e-20
1.133628e-18
8.623171e-18
-3.763082e-17
1.291444e-17
4.368995e-17
-7.050554e-18
-6.469648e-18
3.252384e-17
1.702789e-16
4.747343e-16
1.593780e-15
4.793184e-15
1.397628e-14
3.898496e-14
1.040870e-13
2.669056e-13
6.586632e-13
1.566484e-12
3.598077e-12
7.996217e-12
1.722332e-11
3.601285e-11
7.320164e-11
1.448341e-10
2.792667e-10
5.253293e-10
9.650146e-10
1.732669e-09
3.043233e-09
5.232674e-09
8.814289e-09
1.455495e-08
0.000000e+00
0.000000e+00
3.648798e-18
-1.081908e-17
1.120259e-17
-7.788876e-18
-2.087304e-18
-8.677950e-18
7.411092e-18
-8.783637e-18
7.184138e-18
-2.325976e-18
3.625132e-18
1.773933e-17
-9.687652e-18
8.510563e-19
-4.637163e-18
-2.842359e-18
3.795951e-18
-1.540672e-17
2.403077e-17
3.826564e-19
-1.536028e-18
1.541679e-18
-1.237813e-17
1.242015e-17
-1.751900e-17
7.416379e-18
8.215140e-18
-7.054263e-18
-8.634367e-18
-5.304433e-18
3.834420e-18
-1.967750e-18
8.859760e-19
1.127656e-17
5.467927e-18
-9.867579e-18
3.203914e-19
3.084697e-18
1.452996e-17
-2.281390e-17
-1.021815e-17
2.870815e-18
-6.764899e-18
4.184734e-17
1.066603e-16
3.499363e-16
1.221819e-15
3.766504e-15
1.108714e-14
3.166250e-14
8.638279e-14
2.257820e-13
5.665084e-13
1.367377e-12
3.181474e-12
7.150229e-12
1.555207e-11
3.279441e-11
6.715254e-11
1.337249e-10
2.593129e-10
4.902494e-10
9.046095e-10
1.630734e-09
2.874563e-09
4.958880e-09
8.378105e-09
1.387269e-08
0.000000e+00
0.000000e+00
-1.674796e-18
-2.762298e-18
7.799713e-19
-3.446711e-18
5.409971e-18
-1.697818e-17
9.275026e-18
-1.091487e-17
1.511873e-17
-9.186739e-18
8.621597e-18
-1.134170e-17
-5.106480e-18
2.460708e-18
4.737915e-18
1.632640e-17
8.372056e-18
-7.632570e-18
1.914478e-18
-0.000000e+00
1.658639e-17
-3.019673e-17
2.719114e-18
3.701274e-18
-1.464769e-17
1.213447e-17
1.940934e-17
7.852872e-19
2.053756e-17
-1.229340e-18
-1.928832e-17
-7.728951e-18
6.919297e-18
7.241576e-18
-5.555697e-18
-2.991591e-17
-9.045539e-18
5.736040e-18
-1.211293e-18
7.506945e-18
3.201046e-18
-1.196365e-17
1.848162e-17
-7.102958e-18
1.351590e-16
2.152635e-16
8.797096e-16
2.793525e-15
8.535776e-15
2.480315e-14
6.926828e-14
1.850505e-13
4.737532e-13
1.164428e-12
2.752854e-12
6.274255e-12
1.381371e-11
2.943710e-11
6.082992e-11
1.220973e-10
2.384060e-10
4.534627e-10
8.412179e-10
1.523683e-09
2.697304e-09
4.670942e-09
7.919058e-09
1.315413e-08
0.000000e+00
0.000000e+00
8.498386e-18
2.342750e-19
-3.392616e-18
4.196376e-18
4.783175e-18
-5.916219e-18
2.109761e-17
1.003577e-17
-1.043828e-17
-1.563683e-17
2.258887e-17
-1.314475e-17
3.880600e-18
8.908494e-18
2.658420e-18
-3.806882e-18
7.636484e-18
5.364031e-18
-3.076657e-18
-1.544201e-18
-8.911730e-18
1.360681e-17
-8.577973e-18
-1.016278e-17
-2.350037e-18
-1.843871e-17
1.718575e-17
-2.359250e-17
-7.575036e-18
-7.284126e-18
2.338837e-18
-9.949524e-18
-1.521137e-17
-1.231934e-20
1.992355e-17
-1.468899e-17
1.165436e-17
8.383239e-18
-3.405675e-17
1.441022e-17
-4.121955e-18
1.860104e-17
2.505985e-17
4.803471e-17
3.118901e-17
1.819501e-16
6.173247e-16
2.018045e-15
6.259696e-15
1.868717e-14
5.347128e-14
1.463925e-13
3.834052e-13
9.627024e-13
2.320625e-12
5.380985e-12
1.202744e-11
2.596976e-11
5.427875e-11
1.100235e-10
2.166661e-10
4.151701e-10
7.751757e-10
1.412071e-09
2.512358e-09
4.370292e-09
7.439373e-09
1.240266e-08
0.000000e+00
0.000000e+00
1.666286e-18
-1.106583e-17
1.241028e-17
-2.284409e-18
-3.394176e-19
1.762058e-18
-1.830032e-19
-9.741472e-18
1.325095e-17
6.237883e-18
-1.191555e-17
8.613546e-18
-1.023666e-17
-1.367519e-17
7.235836e-18
-3.438256e-18
-9.585133e-18
-9.622165e-18
1.931905e-17
-2.714628e-18
1.011641e-17
-5.072748e-18
-1.681938e-17
7.838222e-18
1.471940e-17
8.154542e-18
-1.248896e-17
2.440497e-17
-1.575344e-17
4.471797e-17
-1.408931e-17
-6.048396e-18
3.484869e-17
-5.606556e-19
-2.401815e-17
-7.510140e-18
-6.889420e-18
9.263849e-18
-1.946137e-18
-3.148314e-18
-1.020582e-17
-5.592283e-18
-6.311784e-18
-1.917754e-17
7.009571e-18
1.397319e-16
4.356589e-16
1.387402e-15
4.433229e-15
1.352159e-14
3.969175e-14
1.113283e-13
2.991002e-13
7.691802e-13
1.896465e-12
4.489050e-12
1.022108e-11
2.243225e-11
4.755561e-11
9.758715e-11
1.942222e-10
3.755821e-10
7.068348e-10
1.296490e-09
2.320705e-09
4.058526e-09
6.941583e-09
1.162219e-08
0.000000e+00
0.000000e+00
2.392538e-18
6.881891e-19
-9.062731e-19
-1.993702e-18
-8.577055e-18
9.368465e-18
-6.730352e-19
3.401244e-18
-1.294813e-17
-1.985935e-18
-1.609204e-18
-3.412659e-18
-1.424850e-17
-7.619679e-19
-3.822417e-18
6.522516e-18
5.392853e-18
-1.933617e-18
2.717056e-18
-2.764926e-17
-1.054400e-17
-6.067047e-18
-1.176448e-18
-9.818010e-19
4.423061e-18
7.230485e-18
-2.244359e-17
1.280286e-18
-1.699435e-18
-9.915919e-18
-1.037363e-17
6.838658e-18
-1.247717e-17
-4.248710e-18
2.446608e-17
1.558371e-18
4.726125e-19
-9.533655e-18
-1.103522e-17
-1.325702e-17
-1.285945e-17
1.232879e-19
-2.400520e-18
2.023825e-17
1.016662e-17
8.124364e-17
2.449060e-16
9.181835e-16
3.063339e-15
9.419676e-15
2.829655e-14
8.135765e-14
2.241719e-13
5.915566e-13
1.495438e-12
3.624680e-12
8.435864e-12
1.888392e-11
4.074179e-11
8.489651e-11
1.712230e-10
3.349155e-10
6.365366e-10
1.177505e-09
2.123300e-09
3.737241e-09
6.428305e-09
1.081690e-08
0.000000e+00
0.000000e+00
-1.045074e-17
-8.097052e-19
6.482094e-18
-5.135570e-19
1.812274e-18
-1.413344e-17
1.228193e-17
-1.630288e-17
-1.891351e-18
-2.934541e-18
3.792302e-18
1.520215e-18
7.241651e-18
5.354508e-18
4.223588e-18
-5.783026e-18
-1.161237e-18
-5.439114e-18
2.728367e-18
1.446071e-17
-9.792445e-19
9.221092e-18
-1.601156e-17
-2.940137e-17
1.372804e-17
-2.121934e-17
3.652156e-17
-1.709625e-17
1.326854e-17
6.505935e-18
9.612105e-18
-4.997444e-18
2.977361e-17
-1.158723e-17
2.562156e-18
-2.070704e-18
1.189431e-18
2.155779e-17
3.149257e-18
2.693384e-17
-6.082998e-18
7.423718e-18
-2.540958e-18
1.140360e-17
-9.152800e-18
8.359323e-17
1.799008e-16
5.914022e-16
1.990744e-15
6.340333e-15
1.945608e-14
5.714561e-14
1.613409e-13
4.369025e-13
1.133855e-12
2.820098e-12
6.728003e-12
1.541327e-11
3.396253e-11
7.211595e-11
1.478730e-10
2.934252e-10
5.646197e-10
1.055619e-09
1.920963e-09
3.407836e-09
5.901925e-09
9.990749e-09
0.000000e+00
0.000000e+00
3.799220e-18
5.190827e-19
7.172040e-19
5.389521e-18
-5.667405e-19
1.887102e-17
-1.063192e-17
3.309787e-18
1.117042e-17
-1.384341e-17
-1.558603e-17
9.532507e-18
-1.262906e-17
8.453773e-18
-2.122352e-17
-1.162347e-18
-9.721923e-18
-1.287380e-17
4.889319e-18
-1.509102e-17
1.472338e-17
2.348895e-17
8.951993e-18
2.682564e-17
2.009262e-17
-1.216842e-17
-3.296687e-17
4.158586e-17
-1.992678e-17
1.270025e-17
-2.063209e-17
-1.455324e-17
2.269452e-17
1.512973e-17
-1.405117e-17
-2.628402e-18
-1.520013e-17
-5.438436e-18
6.418177e-18
-1.687869e-17
-9.631688e-18
-4.812766e-18
5.398255e-18
-4.277444e-17
1.874139e-17
-1.043929e-17
1.287483e-16
4.111393e-16
1.279253e-15
4.148890e-15
1.286382e-14
3.870794e-14
1.116525e-13
3.098097e-13
8.251601e-13
2.107742e-12
5.163579e-12
1.213783e-11
2.740321e-11
5.950563e-11
1.245021e-10
2.514955e-10
4.915119e-10
9.313231e-10
1.714344e-09
3.071332e-09
5.364223e-09
9.146912e-09
0.000000e+00
0.000000e+00
-1.057984e-17
-5.808434e-18
8.435395e-18
6.434692e-18
-1.487890e-18
-1.431691e-17
5.200870e-18
1.741828e-17
-1.043093e-17
-1.901194e-18
6.484924e-18
1.914723e-18
-2.692052e-18
4.248722e-18
-1.241073e-17
-2.335552e-18
-1.679030e-17
1.291836e-17
-1.941648e-17
-1.375005e-17
2.438556e-17
-3.168913e-17
-1.462354e-17
5.615593e-18
-3.229988e-17
5.147921e-17
-1.568759e-17
-1.455525e-17
1.570237e-17
5.867008e-18
6.501859e-18
-1.016876e-17
-1.520674e-17
3.577440e-18
1.127743e-18
1.020177e-17
2.845991e-17
1.250261e-17
-3.758674e-18
6.802381e-18
-5.046201e-18
1.532314e-17
-8.305325e-18
2.186616e-17
-4.183531e-18
3.406096e-17
5.255505e-17
2.013824e-16
8.453140e-16
2.692350e-15
8.337138e-15
2.534212e-14
7.452241e-14
2.113660e-13
5.766742e-13
1.511576e-12
3.803909e-12
9.187209e-12
2.130050e-11
4.744382e-11
1.016434e-10
2.097899e-10
4.179454e-10
8.053407e-10
1.504110e-09
2.728408e-09
4.816148e-09
8.287143e-09
0.000000e+00
0.000000e+00
1.360203e-17
4.534927e-18
3.890221e-18
-2.763088e-18
-5.055465e-18
1.569611e-17
3.786472e-19
-3.072592e-17
-1.140981e-18
2.404312e-17
-7.664074e-18
4.234059e-18
-1.391880e-17
3.377693e-17
3.896546e-19
-9.770954e-18
1.782642e-17
2.943972e-18
1.611669e-17
-5.312315e-18
-1.087889e-17
3.511712e-17
-1.357428e-17
1.067005e-17
-3.844845e-18
1.133862e-18
-2.334432e-17
7.296883e-18
2.822024e-17
-2.428194e-17
-1.545018e-17
3.804819e-17
-2.102009e-17
1.125836e-17
6.223578e-18
-2.260111e-17
1.704868e-17
-2.097261e-17
1.763868e-17
2.525871e-18
2.118574e-17
-2.811532e-17
2.605711e-18
-4.743171e-18
1.801776e-17
3.171762e-17
4.864950e-17
1.536100e-16
5.209607e-16
1.675803e-15
5.279059e-15
1.620885e-14
4.825040e-14
1.392519e-13
3.879871e-13
1.041358e-12
2.688749e-12
6.671080e-12
1.589775e-11
3.638957e-11
8.004649e-11
1.693782e-10
3.452502e-10
6.790951e-10
1.291537e-09
2.379955e-09
4.258123e-09
7.411625e-09
0.000000e+00
0.000000e+00
-1.084210e-17
-1.356522e-17
2.007260e-18
-4.960547e-18
-2.458185e-18
-4.732770e-18
-2.143299e-17
2.853066e-17
-2.138147e-17
5.368694e-18
6.164359e-18
1.315948e-17
-1.243734e-17
2.223377e-17
-1.740899e-17
5.881747e-19
-1.315896e-17
8.456284e-18
-9.842140e-20
-1.029189e-17
1.083858e-17
1.106375e-17
-1.895272e-17
7.715165e-18
1.723098e-17
-1.010723e-17
1.996809e-18
1.459996e-17
-1.287402e-17
9.286974e-18
2.127229e-17
9.304666e-19
3.475219e-18
1.352434e-17
-1.027059e-17
1.725027e-17
-1.001698e-17
-1.377422e-17
-7.699897e-19
-6.855682e-18
-1.534919e-17
-8.062332e-18
3.904775e-18
1.434997e-18
7.378083e-18
4.126884e-17
-1.176298e-17
1.158061e-16
2.769734e-16
1.066460e-15
3.289075e-15
1.017288e-14
3.052209e-14
8.912811e-14
2.524808e-13
6.914630e-13
1.826877e-12
4.648665e-12
1.137924e-11
2.677816e-11
6.056668e-11
1.317008e-10
2.755268e-10
5.552315e-10
1.079442e-09
2.028364e-09
3.691434e-09
6.520040e-09
0.000000e+00
0.000000e+00
3.832472e-18
8.866850e-18
-5.692229e-18
1.890655e-18
4.732208e-18
8.724794e-18
6.087686e-18
-1.107773e-17
3.453933e-18
-9.641425e-18
1.588677e-17
-1.906676e-17
-6.638401e-18
2.349579e-18
9.614884e-18
2.358450e-18
6.886803e-19
-7.187832e-18
9.556334e-18
1.379785e-18
-3.164419e-17
5.858992e-17
-6.076404e-18
-0.000000e+00
-5.213847e-18
6.076558e-18
1.054428e-17
-2.400867e-17
3.172247e-17
-1.058593e-17
-8.200880e-18
-6.561573e-18
-1.515547e-18
-7.571154e-18
-2.698117e-18
-8.254075e-19
-6.609081e-18
-6.775052e-20
1.576665e-18
1.385679e-17
1.915853e-17
-8.910750e-18
7.389452e-18
-1.428586e-18
-1.077572e-17
5.295407e-18
4.338506e-17
4.081449e-17
2.515291e-16
6.463393e-16
2.047740e-15
6.313301e-15
1.895225e-14
5.575640e-14
1.599231e-13
4.447783e-13
1.197889e-12
3.116553e-12
7.819771e-12
1.889659e-11
4.394141e-11
9.828217e-11
2.114428e-10
4.377617e-10
8.730031e-10
1.679247e-09
3.120833e-09
5.614662e-09
0.000000e+00
0.000000e+00
3.777951e-19
5.479008e-18
3.497081e-18
9.462635e-18
-3.793055e-19
4.946958e-18
1.146515e-18
1.536333e-18
3.860735e-19
-5.431354e-18
-1.558380e-18
9.382538e-18
8.427699e-18
-1.963845e-18
-6.490031e-18
9.351153e-18
1.477515e-19
-5.666389e-18
1.929595e-17
-2.070422e-17
4.461684e-18
-1.296650e-17
-7.272104e-19
-1.003281e-17
-5.607807e-18
8.577678e-18
-1.207710e-17
1.720270e-17