# vtk DataFile Version 3.0
Resultado Projeto 3
ASCII
DATASET STRUCTURED_GRID
DIMENSIONS 140 60 1 
POINTS 8400 double
0.000000e+00 0.000000e+00 0.000000e+00
2.517986e-02 0.000000e+00 0.000000e+00
5.035971e-02 0.000000e+00 0.000000e+00
7.553957e-02 0.000000e+00 0.000000e+00
1.007194e-01 0.000000e+00 0.000000e+00
1.258993e-01 0.000000e+00 0.000000e+00
1.510791e-01 0.000000e+00 0.000000e+00
1.762590e-01 0.000000e+00 0.000000e+00
2.014388e-01 0.000000e+00 0.000000e+00
2.266187e-01 0.000000e+00 0.000000e+00
2.517986e-01 0.000000e+00 0.000000e+00
2.769784e-01 0.000000e+00 0.000000e+00
3.021583e-01 0.000000e+00 0.000000e+00
3.273381e-01 0.000000e+00 0.000000e+00
3.525180e-01 0.000000e+00 0.000000e+00
3.776978e-01 0.000000e+00 0.000000e+00
4.028777e-01 0.000000e+00 0.000000e+00
4.280576e-01 0.000000e+00 0.000000e+00
4.532374e-01 0.000000e+00 0.000000e+00
4.784173e-01 0.000000e+00 0.000000e+00
5.035971e-01 0.000000e+00 0.000000e+00
5.287770e-01 0.000000e+00 0.000000e+00
5.539568e-01 0.000000e+00 0.000000e+00
5.791367e-01 0.000000e+00 0.000000e+00
6.043165e-01 0.000000e+00 0.000000e+00
6.294964e-01 0.000000e+00 0.000000e+00
6.546763e-01 0.000000e+00 0.000000e+00
6.798561e-01 0.000000e+00 0.000000e+00
7.050360e-01 0.000000e+00 0.000000e+00
7.302158e-01 0.000000e+00 0.000000e+00
7.553957e-01 0.000000e+00 0.000000e+00
7.805755e-01 0.000000e+00 0.000000e+00
8.057554e-01 0.000000e+00 0.000000e+00
8.309353e-01 0.000000e+00 0.000000e+00
8.561151e-01 0.000000e+00 0.000000e+00
8.812950e-01 0.000000e+00 0.000000e+00
9.064748e-01 0.000000e+00 0.000000e+00
9.316547e-01 0.000000e+00 0.000000e+00
9.568345e-01 0.000000e+00 0.000000e+00
9.820144e-01 0.000000e+00 0.000000e+00
1.007194e+00 0.000000e+00 0.000000e+00
1.032374e+00 0.000000e+00 0.000000e+00
1.057554e+00 0.000000e+00 0.000000e+00
1.082734e+00 0.000000e+00 0.000000e+00
1.107914e+00 0.000000e+00 0.000000e+00
1.133094e+00 0.000000e+00 0.000000e+00
1.158273e+00 0.000000e+00 0.000000e+00
1.183453e+00 0.000000e+00 0.000000e+00
1.208633e+00 0.000000e+00 0.000000e+00
1.233813e+00 0.000000e+00 0.000000e+00
1.258993e+00 0.000000e+00 0.000000e+00
1.284173e+00 0.000000e+00 0.000000e+00
1.309353e+00 0.000000e+00 0.000000e+00
1.334532e+00 0.000000e+00 0.000000e+00
1.359712e+00 0.000000e+00 0.000000e+00
1.384892e+00 0.000000e+00 0.000000e+00
1.410072e+00 0.000000e+00 0.000000e+00
1.435252e+00 0.000000e+00 0.000000e+00
1.460432e+00 0.000000e+00 0.000000e+00
1.485612e+00 0.000000e+00 0.000000e+00
1.510791e+00 0.000000e+00 0.000000e+00
1.535971e+00 0.000000e+00 0.000000e+00
1.561151e+00 0.000000e+00 0.000000e+00
1.586331e+00 0.000000e+00 0.000000e+00
1.611511e+00 0.000000e+00 0.000000e+00
1.636691e+00 0.000000e+00 0.000000e+00
1.661871e+00 0.000000e+00 0.000000e+00
1.687050e+00 0.000000e+00 0.000000e+00
1.712230e+00 0.000000e+00 0.000000e+00
1.737410e+00 0.000000e+00 0.000000e+00
1.762590e+00 0.000000e+00 0.000000e+00
1.787770e+00 0.000000e+00 0.000000e+00
1.812950e+00 0.000000e+00 0.000000e+00
1.838129e+00 0.000000e+00 0.000000e+00
1.863309e+00 0.000000e+00 0.000000e+00
1.888489e+00 0.000000e+00 0.000000e+00
1.913669e+00 0.000000e+00 0.000000e+00
1.938849e+00 0.000000e+00 0.000000e+00
1.964029e+00 0.000000e+00 0.000000e+00
1.989209e+00 0.000000e+00 0.000000e+00
2.014388e+00 0.000000e+00 0.000000e+00
2.039568e+00 0.000000e+00 0.000000e+00
2.064748e+00 0.000000e+00 0.000000e+00
2.089928e+00 0.000000e+00 0.000000e+00
2.115108e+00 0.000000e+00 0.000000e+00
2.140288e+00 0.000000e+00 0.000000e+00
2.165468e+00 0.000000e+00 0.000000e+00
2.190647e+00 0.000000e+00 0.000000e+00
2.215827e+00 0.000000e+00 0.000000e+00
2.241007e+00 0.000000e+00 0.000000e+00
2.266187e+00 0.000000e+00 0.000000e+00
2.291367e+00 0.000000e+00 0.000000e+00
2.316547e+00 0.000000e+00 0.000000e+00
2.341727e+00 0.000000e+00 0.000000e+00
2.366906e+00 0.000000e+00 0.000000e+00
2.392086e+00 0.000000e+00 0.000000e+00
2.417266e+00 0.000000e+00 0.000000e+00
2.442446e+00 0.000000e+00 0.000000e+00
2.467626e+00 0.000000e+00 0.000000e+00
2.492806e+00 0.000000e+00 0.000000e+00
2.517986e+00 0.000000e+00 0.000000e+00
2.543165e+00 0.000000e+00 0.000000e+00
2.568345e+00 0.000000e+00 0.000000e+00
2.593525e+00 0.000000e+00 0.000000e+00
2.618705e+00 0.000000e+00 0.000000e+00
2.643885e+00 0.000000e+00 0.000000e+00
2.669065e+00 0.000000e+00 0.000000e+00
2.694245e+00 0.000000e+00 0.000000e+00
2.719424e+00 0.000000e+00 0.000000e+00
2.744604e+00 0.000000e+00 0.000000e+00
2.769784e+00 0.000000e+00 0.000000e+00
2.794964e+00 0.000000e+00 0.000000e+00
2.820144e+00 0.000000e+00 0.000000e+00
2.845324e+00 0.000000e+00 0.000000e+00
2.870504e+00 0.000000e+00 0.000000e+00
2.895683e+00 0.000000e+00 0.000000e+00
2.920863e+00 0.000000e+00 0.000000e+00
2.946043e+00 0.000000e+00 0.000000e+00
2.971223e+00 0.000000e+00 0.000000e+00
2.996403e+00 0.000000e+00 0.000000e+00
3.021583e+00 0.000000e+00 0.000000e+00
3.046763e+00 0.000000e+00 0.000000e+00
3.071942e+00 0.000000e+00 0.000000e+00
3.097122e+00 0.000000e+00 0.000000e+00
3.122302e+00 0.000000e+00 0.000000e+00
3.147482e+00 0.000000e+00 0.000000e+00
3.172662e+00 0.000000e+00 0.000000e+00
3.197842e+00 0.000000e+00 0.000000e+00
3.223022e+00 0.000000e+00 0.000000e+00
3.248201e+00 0.000000e+00 0.000000e+00
3.273381e+00 0.000000e+00 0.000000e+00
3.298561e+00 0.000000e+00 0.000000e+00
3.323741e+00 0.000000e+00 0.000000e+00
3.348921e+00 0.000000e+00 0.000000e+00
3.374101e+00 0.000000e+00 0.000000e+00
3.399281e+00 0.000000e+00 0.000000e+00
3.424460e+00 0.000000e+00 0.000000e+00
3.449640e+00 0.000000e+00 0.000000e+00
3.474820e+00 0.000000e+00 0.000000e+00
3.500000e+00 0.000000e+00 0.000000e+00
0.000000e+00 1.694915e-02 0.000000e+00
2.517986e-02 1.694915e-02 0.000000e+00
5.035971e-02 1.694915e-02 0.000000e+00
7.553957e-02 1.694915e-02 0.000000e+00
1.007194e-01 1.694915e-02 0.000000e+00
1.258993e-01 1.694915e-02 0.000000e+00
1.510791e-01 1.694915e-02 0.000000e+00
1.762590e-01 1.694915e-02 0.000000e+00
2.014388e-01 1.694915e-02 0.000000e+00
2.266187e-01 1.694915e-02 0.000000e+00
2.517986e-01 1.694915e-02 0.000000e+00
2.769784e-01 1.694915e-02 0.000000e+00
3.021583e-01 1.694915e-02 0.000000e+00
3.273381e-01 1.694915e-02 0.000000e+00
3.525180e-01 1.694915e-02 0.000000e+00
3.776978e-01 1.694915e-02 0.000000e+00
4.028777e-01 1.694915e-02 0.000000e+00
4.280576e-01 1.694915e-02 0.000000e+00
4.532374e-01 1.694915e-02 0.000000e+00
4.784173e-01 1.694915e-02 0.000000e+00
5.035971e-01 1.694915e-02 0.000000e+00
5.287770e-01 1.694915e-02 0.000000e+00
5.539568e-01 1.694915e-02 0.000000e+00
5.791367e-01 1.694915e-02 0.000000e+00
6.043165e-01 1.694915e-02 0.000000e+00
6.294964e-01 1.694915e-02 0.000000e+00
6.546763e-01 1.694915e-02 0.000000e+00
6.798561e-01 1.694915e-02 0.000000e+00
7.050360e-01 1.694915e-02 0.000000e+00
7.302158e-01 1.694915e-02 0.000000e+00
7.553957e-01 1.694915e-02 0.000000e+00
7.805755e-01 1.694915e-02 0.000000e+00
8.057554e-01 1.694915e-02 0.000000e+00
8.309353e-01 1.694915e-02 0.000000e+00
8.561151e-01 1.694915e-02 0.000000e+00
8.812950e-01 1.694915e-02 0.000000e+00
9.064748e-01 1.694915e-02 0.000000e+00
9.316547e-01 1.694915e-02 0.000000e+00
9.568345e-01 1.694915e-02 0.000000e+00
9.820144e-01 1.694915e-02 0.000000e+00
1.007194e+00 1.694915e-02 0.000000e+00
1.032374e+00 1.694915e-02 0.000000e+00
1.057554e+00 1.694915e-02 0.000000e+00
1.082734e+00 1.694915e-02 0.000000e+00
1.107914e+00 1.694915e-02 0.000000e+00
1.133094e+00 1.694915e-02 0.000000e+00
1.158273e+00 1.694915e-02 0.000000e+00
1.183453e+00 1.694915e-02 0.000000e+00
1.208633e+00 1.694915e-02 0.000000e+00
1.233813e+00 1.694915e-02 0.000000e+00
1.258993e+00 1.694915e-02 0.000000e+00
1.284173e+00 1.694915e-02 0.000000e+00
1.309353e+00 1.694915e-02 0.000000e+00
1.334532e+00 1.694915e-02 0.000000e+00
1.359712e+00 1.694915e-02 0.000000e+00
1.384892e+00 1.694915e-02 0.000000e+00
1.410072e+00 1.694915e-02 0.000000e+00
1.435252e+00 1.694915e-02 0.000000e+00
1.460432e+00 1.694915e-02 0.000000e+00
1.485612e+00 1.694915e-02 0.000000e+00
1.510791e+00 1.694915e-02 0.000000e+00
1.535971e+00 1.694915e-02 0.000000e+00
1.561151e+00 1.694915e-02 0.000000e+00
1.586331e+00 1.694915e-02 0.000000e+00
1.611511e+00 1.694915e-02 0.000000e+00
1.636691e+00 1.694915e-02 0.000000e+00
1.661871e+00 1.694915e-02 0.000000e+00
1.687050e+00 1.694915e-02 0.000000e+00
1.712230e+00 1.694915e-02 0.000000e+00
1.737410e+00 1.694915e-02 0.000000e+00
1.762590e+00 1.694915e-02 0.000000e+00
1.787770e+00 1.694915e-02 0.000000e+00
1.812950e+00 1.694915e-02 0.000000e+00
1.838129e+00 1.694915e-02 0.000000e+00
1.863309e+00 1.694915e-02 0.000000e+00
1.888489e+00 1.694915e-02 0.000000e+00
1.913669e+00 1.694915e-02 0.000000e+00
1.938849e+00 1.694915e-02 0.000000e+00
1.964029e+00 1.694915e-02 0.000000e+00
1.989209e+00 1.694915e-02 0.000000e+00
2.014388e+00 1.694915e-02 0.000000e+00
2.039568e+00 1.694915e-02 0.000000e+00
2.064748e+00 1.694915e-02 0.000000e+00
2.089928e+00 1.694915e-02 0.000000e+00
2.115108e+00 1.694915e-02 0.000000e+00
2.140288e+00 1.694915e-02 0.000000e+00
2.165468e+00 1.694915e-02 0.000000e+00
2.190647e+00 1.694915e-02 0.000000e+00
2.215827e+00 1.694915e-02 0.000000e+00
2.241007e+00 1.694915e-02 0.000000e+00
2.266187e+00 1.694915e-02 0.000000e+00
2.291367e+00 1.694915e-02 0.000000e+00
2.316547e+00 1.694915e-02 0.000000e+00
2.341727e+00 1.694915e-02 0.000000e+00
2.366906e+00 1.694915e-02 0.000000e+00
2.392086e+00 1.694915e-02 0.000000e+00
2.417266e+00 1.694915e-02 0.000000e+00
2.442446e+00 1.694915e-02 0.000000e+00
2.467626e+00 1.694915e-02 0.000000e+00
2.492806e+00 1.694915e-02 0.000000e+00
2.517986e+00 1.694915e-02 0.000000e+00
2.543165e+00 1.694915e-02 0.000000e+00
2.568345e+00 1.694915e-02 0.000000e+00
2.593525e+00 1.694915e-02 0.000000e+00
2.618705e+00 1.694915e-02 0.000000e+00
2.643885e+00 1.694915e-02 0.000000e+00
2.669065e+00 1.694915e-02 0.000000e+00
2.694245e+00 1.694915e-02 0.000000e+00
2.719424e+00 1.694915e-02 0.000000e+00
2.744604e+00 1.694915e-02 0.000000e+00
2.769784e+00 1.694915e-02 0.000000e+00
2.794964e+00 1.694915e-02 0.000000e+00
2.820144e+00 1.694915e-02 0.000000e+00
[...]
POINT_DATA 8400
SCALARS RES_Cont double
LOOKUP_TABLE default
0.000000e+00
0.000000e+00
0.000000e+00
0.000000e+00
0.000000e+00
0.000000e+00
0.000000e+00
0.000000e+00
0.000000e+00
0.000000e+00
0.000000e+00
0.000000e+00
0.000000e+00
0.000000e+00
0.000000e+00
0.000000e+00
0.000000e+00
0.000000e+00
0.000000e+00
0.000000e+00
0.000000e+00
0.000000e+00
0.000000e+00
0.000000e+00
0.000000e+00
0.000000e+00
0.000000e+00
0.000000e+00
0.000000e+00
0.000000e+00
0.000000e+00
0.000000e+00
0.000000e+00
0.000000e+00
0.000000e+00
0.000000e+00
0.000000e+00
0.000000e+00
0.000000e+00
0.000000e+00
0.000000e+00
0.000000e+00
0.000000e+00
0.000000e+00
0.000000e+00
0.000000e+00
0.000000e+00
0.000000e+00
0.000000e+00
0.000000e+00
0.000000e+00
0.000000e+00
0.000000e+00
0.000000e+00
0.000000e+00
0.000000e+00
0.000000e+00
0.000000e+00
0.000000e+00
0.000000e+00
0.000000e+00
0.000000e+00
0.000000e+00
0.000000e+00
0.000000e+00
0.000000e+00
0.000000e+00
0.000000e+00
0.000000e+00
0.000000e+00
0.000000e+00
0.000000e+00
0.000000e+00
0.000000e+00
0.000000e+00
0.000000e+00
0.000000e+00
0.000000e+00
0.000000e+00
0.000000e+00
0.000000e+00
0.000000e+00
0.000000e+00
0.000000e+00
0.000000e+00
0.000000e+00
0.000000e+00
0.000000e+00
0.000000e+00
0.000000e+00
0.000000e+00
0.000000e+00
0.000000e+00
0.000000e+00
0.000000e+00
0.000000e+00
0.000000e+00
0.000000e+00
0.000000e+00
0.000000e+00
0.000000e+00
0.000000e+00
0.000000e+00
0.000000e+00
0.000000e+00
0.000000e+00
0.000000e+00
0.000000e+00
0.000000e+00
0.000000e+00
0.000000e+00
0.000000e+00
0.000000e+00
0.000000e+00
0.000000e+00
0.000000e+00
0.000000e+00
0.000000e+00
0.000000e+00
0.000000e+00
0.000000e+00
0.000000e+00
0.000000e+00
0.000000e+00
0.000000e+00
0.000000e+00
0.000000e+00
0.000000e+00
0.000000e+00
0.000000e+00
0.000000e+00
0.000000e+00
0.000000e+00
0.000000e+00
0.000000e+00
0.000000e+00
0.000000e+00
0.000000e+00
0.000000e+00
0.000000e+00
0.000000e+00
2.963678e-19
2.963678e-19
-2.963678e-19
5.198275e-18
-5.927357e-19
-3.422926e-19
-3.465993e-18
1.363455e-19
4.513690e-18
-1.481839e-18
-4.559615e-18
4.058729e-18
-3.867885e-19
-1.753101e-18
3.313115e-18
-4.808817e-19
-2.886318e-18
6.646636e-18
2.047602e-18
1.584005e-18
7.324930e-18
1.498913e-17
-1.307979e-17
1.024325e-17
-1.908058e-18
6.909714e-18
-2.741651e-18
4.957457e-18
6.736595e-18
2.966119e-18
4.633302e-18
-3.008738e-18
1.099931e-18
-1.435064e-19
9.048030e-18
-3.331879e-19
6.944618e-18
-3.730529e-18
1.304508e-17
-2.583063e-17
-2.985431e-18
1.243974e-17
1.346128e-17
1.762502e-18
-5.928857e-18
3.900363e-18
-2.054139e-17
8.653478e-18
-4.069951e-18
7.858136e-19
2.942998e-17
1.454004e-17
6.888436e-18
2.055129e-18
4.545354e-18
-2.855615e-18
-7.376084e-18
-1.408343e-17
-4.691266e-18
-1.465898e-17
-1.511562e-17
4.523767e-18
6.392996e-18
-1.097251e-17
1.019716e-17
4.806077e-18
7.101303e-18
-6.063768e-18
-1.935103e-18
-9.843506e-18
-9.996518e-18
9.422583e-18
9.134852e-18
1.247138e-17
1.734556e-17
-7.923341e-18
2.046442e-17
-2.682601e-18
-1.560465e-17
7.896755e-18
1.792462e-17
-2.315016e-17
4.572925e-18
4.774233e-18
-3.175674e-18
-2.136394e-17
1.773930e-17
1.023113e-17
7.827822e-18
-1.096777e-17
-1.335410e-17
-1.118702e-17
3.211086e-17
-1.311139e-17
3.765675e-17
-3.204033e-17
1.735789e-17
-3.250099e-17
9.488889e-18
2.327861e-17
1.692167e-17
-2.813402e-17
-1.515640e-17
1.987453e-17
1.755894e-18
1.946670e-17
-1.695838e-17
-2.243850e-19
1.048018e-17
5.009504e-17
3.535328e-18
4.180861e-17
1.263414e-16
3.917830e-16
8.390447e-16
2.079541e-15
4.960505e-15
1.182817e-14
2.745755e-14
6.250384e-14
1.398758e-13
3.077858e-13
6.658422e-13
1.416393e-12
2.963234e-12
6.097620e-12
1.234215e-11
2.450894e-11
4.793878e-11
9.223645e-11
1.746865e-10
3.257161e-10
5.979031e-10
1.080474e-09
1.922128e-09
3.366170e-09
5.803360e-09
9.849526e-09
0.000000e+00
0.000000e+00
5.927357e-19
5.927357e-19
5.791011e-18
5.927357e-19
4.263247e-18
-2.120500e-18
3.237798e-18
2.074575e-18
2.348695e-18
4.855983e-18
3.191873e-18
-5.402794e-18
9.895665e-18
1.622471e-18
-3.384961e-18
5.596495e-18
1.179706e-19
-8.438342e-18
2.558252e-18
-1.278494e-17
6.790314e-18
1.292875e-18
-1.484338e-17
-7.364833e-19
9.839876e-18
5.609787e-19
2.053547e-18
-9.337158e-18
-4.128943e-18
5.933824e-18
-1.423703e-19
2.903637e-18
1.519767e-18
4.358051e-18
-6.093922e-18
1.722562e-17
1.666361e-17
-1.486472e-17
7.173241e-18
1.382620e-17
8.318222e-18
-1.316766e-17
4.734448e-18
-1.660293e-17
-2.012536e-17
6.596180e-18
-1.010161e-17
2.939440e-18
4.727757e-18
-8.131616e-18
-6.516367e-18
2.451050e-17
-4.523713e-18
4.641414e-18
1.321320e-17
4.143902e-19
-5.035288e-18
5.680981e-18
-4.742389e-18
-7.677835e-18
-1.698577e-17
1.708422e-18
9.604989e-18
8.350681e-18
5.449595e-18
1.478269e-17
-3.200959e-19
3.877078e-18
-7.208706e-18
-4.648211e-18
1.674552e-17
-1.249323e-17
5.000513e-17
-1.690410e-19
1.907112e-18
5.633470e-18
-1.639830e-17
8.850877e-18
-1.340859e-17
-1.014446e-17
7.925890e-18
7.146124e-18
-2.581302e-18
-9.804065e-18
1.986575e-18
-3.889049e-18
6.005886e-18
2.346848e-17
-1.833798e-18
3.046971e-17
1.044274e-17
-1.676727e-17
-2.641913e-17
-1.978361e-17
-1.515890e-17
1.219089e-17
-3.230273e-17
-1.716045e-17
2.449697e-17
-1.897189e-17
1.518071e-17
1.546924e-18
-7.581503e-18
1.466864e-17
5.287043e-18
1.969423e-17
3.438898e-17
-9.562609e-18
3.521192e-17
-4.030447e-18
2.540548e-17
-4.705242e-18
1.469951e-16
3.071425e-16
7.755103e-16
1.908744e-15
4.591884e-15
1.078013e-14
2.500416e-14
5.705261e-14
1.276435e-13
2.810419e-13
6.082686e-13
1.294602e-12
2.709667e-12
5.578407e-12
1.129685e-11
2.274874e-11
4.429435e-11
8.514681e-11
1.613616e-10
3.011307e-10
5.531883e-10
1.000298e-09
1.780468e-09
3.119618e-09
5.380740e-09
9.136131e-09
0.000000e+00
0.000000e+00
5.927357e-19
5.927357e-19
5.791011e-18
5.927357e-19
1.435914e-18
4.719637e-18
-0.000000e+00
2.052327e-18
-5.676913e-18
7.615143e-18
5.380546e-18
3.077776e-18
-5.970424e-18
3.040424e-18
-3.396392e-18
-2.641189e-18
-4.413493e-18
5.000237e-18
-7.762314e-20
-1.762063e-18
5.846673e-18
-9.969598e-18
3.997946e-18
-4.852129e-18
-5.022984e-18
-5.915953e-18
-5.672230e-18
-9.839375e-19
7.743740e-18
1.823591e-18
2.982195e-18
-4.985255e-18
1.678394e-17
-3.861328e-19
-8.239447e-18
-2.373394e-18
9.894715e-18
-1.780063e-18
-2.404042e-18
-1.052203e-17
-3.158204e-18
-9.002226e-18
9.648984e-18
-2.211455e-18
-7.651164e-18
6.389008e-18
2.128807e-18
6.849117e-18
-8.176208e-18
1.541062e-17
1.935705e-17
-4.684132e-19
5.813040e-18
-1.893683e-18
-4.535646e-18
-3.296177e-19
2.305634e-18
-6.651872e-18
-1.296484e-17
-2.714718e-17
6.994026e-18
-1.060724e-17
4.333828e-18
-4.164583e-18
1.665455e-17
3.207746e-18
-5.838236e-18
-2.434155e-17
-1.963653e-17
-3.718776e-17
-6.573974e-18
-2.149145e-17
-7.805665e-18
9.742195e-18
-3.618655e-18
1.007128e-17
-1.768218e-17
1.775832e-17
1.859196e-17
9.299010e-18
2.254632e-17
-7.014351e-18
-4.143308e-17
4.804669e-18
-4.925223e-17
8.766799e-18
-3.950739e-18
-4.263793e-18
8.379965e-18
1.638211e-17
2.705967e-18
2.080650e-17
-8.124822e-18
4.237444e-18
-5.872407e-17
6.636493e-18
1.236202e-17
5.864976e-18
-3.341231e-17
1.911393e-17
-1.541920e-18
7.029187e-18
-4.473207e-18
-1.064591e-17
-9.615717e-18
-1.048999e-18
1.748689e-17
2.891935e-17
4.188400e-17
2.382424e-17
4.742681e-19
9.159867e-17
1.021130e-16
3.017168e-16
7.358701e-16
1.847077e-15
4.458346e-15
1.051210e-14
2.434852e-14
5.553635e-14
1.242857e-13
2.738570e-13
5.930179e-13
1.262836e-12
2.645054e-12
5.448864e-12
1.104209e-11
2.177152e-11
4.300729e-11
8.324905e-11
1.582370e-10
2.957725e-10
5.439693e-10
9.845795e-10
1.754010e-09
3.075718e-09
5.308996e-09
9.020714e-09
0.000000e+00
0.000000e+00
5.927357e-19
5.927357e-19
5.791011e-18
-1.481839e-18
-1.207719e-18
2.781408e-18
-1.413666e-18
2.895506e-18
2.052327e-18
-2.224796e-20
4.515119e-18
1.346923e-18
5.270735e-18
-3.105739e-18
-6.008189e-18
1.068025e-17
-6.515891e-22
-6.846090e-18
1.259397e-18
5.309714e-18
2.485146e-18
-1.456724e-17
5.159042e-18
-2.562441e-17
6.085994e-18
-1.002785e-17
-9.015236e-18
6.268298e-18
1.373518e-17
-9.833379e-18
1.275695e-17
9.456453e-18
2.014561e-18
7.687995e-18
-3.869291e-18
-2.210527e-17
1.270842e-17
1.078173e-17
-6.773937e-18
-7.919509e-19
-1.594013e-17
-1.609455e-17
3.303820e-18
-6.127374e-18
-2.550831e-22
-6.745972e-18
-3.384062e-18
-1.260794e-17
-3.517514e-18
1.864712e-18
1.225785e-17
4.090085e-18
1.199240e-17
7.308192e-18
5.219913e-18
-1.331182e-17
-1.973546e-17
9.105913e-18
-2.175711e-17
-8.179590e-18
1.389948e-17
-1.235441e-17
1.488595e-17
-8.706903e-18
-7.072331e-18
1.301309e-18
1.121714e-17
2.334687e-17
-2.515648e-17
2.378777e-17
-1.007056e-18
-5.112181e-18
-2.396447e-17
-1.362181e-17
2.500089e-17
1.680135e-17
5.433453e-17
-1.261427e-17
-5.138077e-18
-1.177280e-17
4.623062e-18
-5.741161e-17
-4.898505e-18
-5.627094e-17
4.081764e-17
-7.175792e-17
-2.749644e-17
1.672713e-17
-1.018703e-17
1.120669e-17
-5.005244e-17
3.859233e-17
1.181785e-17
-4.693050e-18
2.916558e-17
-1.130070e-17
-6.698451e-18
3.240150e-17
3.626671e-17
2.917385e-18
3.375967e-17
-3.376777e-18
2.107821e-17
1.266397e-17
-8.936301e-18
3.014238e-17
-5.394178e-18
7.470477e-18
4.846984e-18
-2.162349e-18
1.497106e-17
8.696914e-17
1.166758e-16
2.207372e-16
6.938026e-16
1.782990e-15
4.283010e-15
1.020586e-14
2.350702e-14
5.376398e-14
1.205578e-13
2.657097e-13
5.758017e-13
1.227252e-12
2.572288e-12
5.303350e-12
1.075309e-11
2.149314e-11
4.210099e-11
8.129367e-11
1.545377e-10
2.890909e-10
5.321769e-10
9.641319e-10
1.719134e-09
3.017184e-09
5.212317e-09
8.863566e-09
0.000000e+00
0.000000e+00
5.927357e-19
5.927357e-19
5.791011e-18
-2.963678e-19
3.077776e-18
1.595937e-18
6.794212e-18
-7.158753e-18
2.759160e-18
6.065131e-18
7.082621e-19
4.878256e-20
-2.764876e-18
-3.126358e-18
7.944563e-18
-1.027085e-17
-2.463419e-18
8.939867e-18
1.009265e-17
2.616904e-18
-4.496671e-18
6.550303e-18
3.726480e-18
7.726363e-18
9.881384e-18
2.458324e-18
2.078459e-18
-7.363247e-19
1.118392e-17
-5.509871e-18
1.260341e-20
-3.719918e-18
1.497619e-18
-2.140706e-18
-3.649783e-18
-1.702600e-17
-1.193774e-17
1.572496e-17
-2.659369e-17
-4.283009e-18
-8.894230e-18
-1.948366e-18
-1.254060e-17
5.976995e-18
1.041494e-17
-2.942337e-18
1.162560e-18
-2.953453e-17
-1.388008e-17
-1.916473e-17
-2.251609e-18
4.656284e-18
4.731452e-18
-4.302049e-18
-5.324887e-18
9.988693e-18
6.432551e-18
-1.621583e-17
-0.000000e+00
-6.185094e-18
-8.339983e-18
-4.639128e-18
-1.166840e-17
-1.739283e-17
-1.696199e-17
6.615211e-18
1.135842e-17
8.727631e-18
-2.190640e-17
2.627830e-17
-8.637343e-18
6.512947e-18
-3.611022e-17
-4.413317e-18
6.745210e-19
-3.557188e-18
1.516558e-17
1.597371e-17
1.990527e-18
-5.079184e-19
1.233688e-18
7.477579e-18
-5.827730e-17
3.410442e-17
-2.154792e-17
8.824676e-18
9.332124e-18
-9.082736e-18
-3.391397e-17
-4.514225e-17
1.155756e-17
4.416464e-18
2.905996e-17
3.541071e-17
1.702874e-17
-1.243942e-19
-5.279636e-18
-1.415642e-17
2.770535e-17
-2.954667e-17
1.987776e-17
-1.632011e-17
-2.967079e-18
2.331081e-17
-7.056179e-18
2.365262e-18
-1.611768e-17
-1.938977e-18
3.571692e-18
1.614062e-17
3.486352e-17
1.682381e-17
1.138148e-16
2.498142e-16
6.647167e-16
1.693474e-15
4.130562e-15
9.748427e-15
2.275237e-14
5.185030e-14
1.164104e-13
2.567901e-13
5.570780e-13
1.188276e-12
2.492874e-12
5.144053e-12
1.042828e-11
2.084247e-11
4.095946e-11
7.917314e-11
1.505920e-10
2.818917e-10
5.193254e-10
9.416476e-10
1.680520e-09
2.952022e-09
5.104197e-09
8.687102e-09
0.000000e+00
0.000000e+00
5.927357e-19
5.927357e-19
5.791011e-18
-5.927357e-19
-4.786381e-19
4.126902e-18
-2.096823e-18
-3.374144e-18
3.510489e-18
4.423269e-18
-6.063702e-18
8.470517e-20
-5.631427e-19
1.445089e-18
-1.645145e-18
5.488514e-18
-5.155760e-18
-1.013997e-17
2.542064e-18
-1.453399e-18
-3.237563e-18
3.809597e-18
-5.080832e-18
3.845118e-18
-4.659303e-18
-2.049884e-17
-1.167316e-17
3.388291e-18
-5.408403e-18
3.156796e-20
4.459311e-18
-8.454026e-18
1.135852e-17
-2.375284e-18
-7.244546e-18
-1.262216e-17
5.192071e-18
5.277771e-18
1.260076e-17
-5.507114e-18
-5.953802e-18
8.839260e-18
-3.859389e-18
-5.521108e-18
9.685986e-18
1.881196e-18
-1.796117e-18
-1.506649e-18
-1.128959e-17
6.600325e-18
-7.710178e-18
5.310286e-18
5.781366e-18
1.991382e-17
5.386514e-18
-5.829577e-18
-2.030041e-18
1.627669e-17
6.906248e-18
-6.733234e-18
5.595662e-18
-1.599809e-17
-1.936980e-17
-2.224984e-17
1.989681e-18
1.371626e-17
2.627866e-17
2.352250e-18
1.385094e-17
-1.140553e-17
-1.361836e-17
-8.130936e-18
1.929304e-17
-2.308650e-17
3.085282e-17
-1.135940e-17
1.670014e-17
-2.030378e-17
-1.613746e-17
-2.359447e-17
1.374964e-17
3.308157e-18
-7.332488e-18
9.717148e-18
-7.082533e-18
-2.154897e-17
-2.260247e-17
4.860065e-17
-3.189768e-17
-5.933765e-17
-1.981266e-17
2.396038e-17
7.303099e-18
-2.075269e-17
3.561657e-17
-1.867814e-17
1.842324e-17
4.424224e-18
1.609228e-18
-2.569505e-18
-3.314983e-17
1.692247e-17
-1.908565e-17
2.677366e-17
3.171329e-17
-6.487063e-18
4.140686e-17
-1.275144e-17
9.744943e-18
1.694402e-17
6.239192e-18
8.953410e-18
6.647891e-17
2.678134e-16
6.943460e-16
1.651845e-15
3.959154e-15
9.391248e-15
2.180698e-14
4.986971e-14
1.120101e-13
2.472937e-13
5.370079e-13
1.146600e-12
2.407747e-12
4.971153e-12
1.006277e-11
2.019109e-11
3.974365e-11
7.689257e-11
1.463691e-10
2.742139e-10
5.056268e-10
9.176530e-10
1.639236e-09
2.882211e-09
4.988128e-09
8.497294e-09
0.000000e+00
0.000000e+00
5.927357e-19
5.927357e-19
5.791011e-18
-5.927357e-19
-1.822703e-19
-2.985926e-18
-2.553213e-18
2.302770e-18
1.527764e-18
-1.600223e-19
1.137036e-17
2.455034e-18
5.927758e-18
-2.850408e-18
-9.434988e-18
-2.395513e-19
2.173354e-18
-2.453084e-18
3.504187e-18
1.086776e-17
-1.031303e-17
6.768391e-19
-3.455369e-18
1.864521e-17
4.044070e-18
-2.333904e-17
-4.752602e-18
1.117494e-17
5.290965e-18
1.092967e-17
2.080714e-18
9.623411e-19
-1.489559e-17
8.760659e-18
-9.646150e-18
3.773887e-20
-4.780839e-18
-5.945299e-18
-5.169285e-18
-8.258812e-20
-2.156081e-18
-2.749012e-18
-1.205879e-18
-2.520707e-18
-6.649805e-18
5.812398e-18
6.469258e-18
-3.141987e-18
-2.890761e-18
7.629741e-18
-2.732603e-17
-9.413147e-18
-5.445896e-18
-6.110376e-18
1.120689e-17
1.344618e-17
2.732586e-18
5.298318e-18
1.345935e-17
9.507005e-18
-2.242501e-18
-5.178724e-18
1.641144e-17
-1.063669e-17
-1.406773e-17
1.576801e-17
1.037358e-17
6.000307e-18
-1.928365e-17
8.630767e-18
1.504041e-17
-1.179662e-17
7.576640e-18
-7.837946e-18
9.788809e-18
1.619041e-17
2.077690e-17
-7.985689e-18
-2.327546e-17
2.596123e-17
1.635685e-17
-3.660342e-18
-3.088217e-17
2.550653e-18
-6.878710e-18
1.861063e-17
7.703384e-18
-1.700941e-17
-4.569991e-17
-1.687358e-17
-2.747420e-17
-6.118442e-18
3.803399e-17
-4.442256e-17
1.912885e-17
-1.859092e-17
-2.298859e-17
3.207911e-18
8.996295e-18
1.302806e-17
2.049168e-18
8.998300e-19
4.780253e-17
-3.891177e-18
-7.813275e-18
-1.942758e-17
2.416879e-17
1.746216e-17
6.874786e-18
1.765391e-17
5.037884e-17
3.795125e-17
8.496449e-17
2.167574e-16
6.264724e-16
1.522283e-15
3.771573e-15
8.957775e-15
2.087649e-14
4.770314e-14
1.073707e-13
2.372847e-13
5.159047e-13
1.102558e-12
2.316706e-12
4.782011e-12
9.896890e-12
1.960841e-11
3.845466e-11
7.441210e-11
1.418034e-10
2.659750e-10
4.909907e-10
8.920618e-10
1.595215e-09
2.807733e-09
4.864183e-09
8.294385e-09
0.000000e+00
0.000000e+00
5.927357e-19
5.927357e-19
5.791011e-18
-2.963678e-19
5.448718e-18
9.141478e-18
-1.984154e-18
-1.363455e-19
-1.144425e-17
-2.351552e-18
-9.071061e-18
-1.313657e-18
-3.444159e-18
-1.544497e-18
-8.141260e-18
7.451597e-18
-1.431001e-17
1.097865e-17
7.050019e-18
1.314039e-17
-1.283537e-17
-3.336453e-18
-5.657126e-20
-1.083508e-17
1.501218e-18
-4.531701e-18
-1.165116e-17
1.066220e-17
7.017781e-18
5.515879e-18
5.220467e-18
2.025004e-17
-6.639230e-18
-1.821512e-17
-1.299119e-17
3.683573e-18
-6.395806e-18
5.172895e-19
-1.389444e-17
1.814244e-17
-8.675738e-18
3.823277e-18
1.125230e-17
2.539554e-18
-1.807181e-18
-8.918058e-18
-7.872515e-18
2.547921e-17
-5.128305e-18
3.853053e-18
-3.341429e-17
-3.416414e-19
-1.817117e-17
-2.013694e-17
4.602467e-18
4.178503e-18
1.540728e-17
1.072893e-17
1.603267e-17
1.604646e-18
2.337174e-17
1.975396e-18
-9.992935e-18
7.878942e-18
-3.300462e-17
2.292757e-17
2.693209e-17
-1.156784e-17
-3.131309e-17
-7.512754e-19
4.677966e-18
-4.301517e-18
-7.540935e-19
-2.972004e-18
1.906301e-17
-3.908508e-17
3.427825e-17
2.678760e-18
1.723781e-17
5.681481e-18
2.282723e-17
1.621023e-17
-4.449466e-18
-2.084414e-17
1.940652e-17
2.812641e-18
3.129859e-17
2.125933e-18
-4.433668e-17
-1.411838e-17
-4.591967e-17
-8.911054e-18
-1.563123e-17
-2.114177e-17
2.017658e-19
-6.668295e-18
-1.355518e-17
4.514361e-17
-3.917361e-17
-3.300779e-17
-6.498943e-18
3.495498e-17
5.227143e-18
1.403770e-17
2.363383e-18
-3.179207e-18
3.664642e-17
1.114782e-18
1.949887e-17
1.755704e-17
2.201644e-17
3.004048e-17
6.089011e-17
2.429812e-16
5.969575e-16
1.538337e-15
3.589832e-15
8.536144e-15
1.987687e-14
4.550783e-14
1.025004e-13
2.268566e-13
4.936503e-13
1.055918e-12
2.218260e-12
4.575951e-12
9.201040e-12
1.865979e-11
3.694458e-11
7.173986e-11
1.369537e-10
2.572301e-10
4.754455e-10
8.648636e-10
1.548394e-09
2.728439e-09
4.732075e-09
8.077857e-09
0.000000e+00
0.000000e+00
5.927357e-19
5.927357e-19
5.791011e-18
-1.481839e-18
4.263247e-18
-4.331420e-18
2.485040e-18
4.992328e-18
-2.351552e-18
1.126687e-18
7.579421e-18
-4.042811e-18
-4.682223e-19
-1.816912e-18
-5.353298e-18
3.696203e-18
2.910358e-17
-7.558321e-18
1.101551e-17
8.918198e-18
-1.087521e-18
1.417371e-20
-1.111411e-17
4.019760e-18
-1.239952e-17
2.701669e-17
-4.489275e-18
1.087766e-17
1.910894e-19
1.968993e-18
1.874112e-18
2.184108e-17
-1.722244e-18
-8.241988e-18
2.462753e-18
-3.615357e-18
-5.661948e-18
-6.099550e-18
4.417921e-18
-5.834584e-18
-1.256144e-17
9.317434e-18
2.819254e-17
-1.869577e-19
-6.882400e-18
-1.875883e-17
-2.880674e-17
2.654540e-18
-4.255536e-18
-2.204251e-17
-1.459073e-17
7.899902e-18
1.663832e-18
-1.587656e-18
2.088813e-18
1.299483e-17
3.520823e-18
1.134449e-17
8.363202e-18
4.558215e-18
-1.848999e-17
4.004479e-18
2.021565e-17
1.745285e-17
3.316759e-17
1.228890e-17
1.860661e-17
-9.519004e-18
1.790445e-18
-5.298182e-18
-3.911160e-18
5.087081e-18
1.131593e-17
1.515471e-18
-1.368808e-17
-3.076820e-18
-1.324045e-17
2.006678e-17
3.214332e-17
-4.781164e-18
-8.575750e-19
2.316885e-17
3.557508e-18
-2.501890e-17
-1.462474e-17
-6.070048e-18
1.231923e-17
-3.460379e-17
-5.576851e-18
-3.786668e-17
2.853670e-17
4.267061e-17
-1.168483e-17
-3.243065e-17
1.825082e-17
-2.359835e-17
-8.400912e-18
-2.187847e-17
3.171797e-17
-9.186445e-18
-3.441732e-17
3.558035e-17
-1.378179e-17
2.788346e-17
-1.360226e-17
-1.815154e-17
4.581845e-17
-4.190439e-19
1.486046e-17
-9.528903e-18
-1.530846e-17
6.506863e-17
9.810446e-17
2.297835e-16
5.430344e-16
1.397912e-15
3.416521e-15
8.047663e-15
1.885274e-14
4.321262e-14
9.747504e-14
2.159082e-13
4.702512e-13
1.005909e-12
2.112214e-12
4.490942e-12
9.085230e-12
1.806298e-11
3.555955e-11
6.902506e-11
1.319022e-10
2.480543e-10
4.590773e-10
8.361541e-10
1.498869e-09
2.644407e-09
4.591833e-09
7.847636e-09
0.000000e+00
0.000000e+00
5.927357e-19
5.927357e-19
5.791011e-18
2.667310e-18
-1.960477e-18
8.668555e-19
7.305100e-19
-4.993757e-18
-8.124602e-18
2.534637e-18
2.518105e-18
3.655007e-18
7.426204e-18
-1.090086e-17
-5.653014e-18
2.978013e-18
1.559100e-17
7.495227e-18
-6.342056e-18
-8.573611e-18
-4.736334e-18
-7.416276e-18
4.315107e-18
-1.951267e-18
7.601159e-19
-2.572745e-18
4.414846e-18
-1.331413e-17
6.625641e-18
-2.368755e-17
1.275794e-17
-4.068531e-18
-1.046354e-17
8.803402e-18
8.371720e-18
-7.587218e-18
-4.607686e-18
2.371960e-18
-1.897665e-18
-3.850911e-18
8.885444e-18
6.672568e-18
3.415688e-17
6.913153e-19
-9.985899e-18
2.714893e-18
-1.243254e-17
-1.983516e-17
1.722069e-17
-1.065213e-17
5.889883e-18
8.743483e-19
-7.234377e-18
-1.445759e-18
2.726185e-18
1.599413e-18
1.279063e-18
1.289301e-18
-5.877323e-18
5.958804e-18
-1.771419e-17
2.702586e-17
-3.192355e-18
-2.980275e-18
4.616843e-17
-4.253027e-18
8.429587e-19
3.562866e-17
-6.565311e-18
3.708059e-17
-8.299394e-18
2.045080e-17
3.405461e-17
1.914281e-17
-3.641626e-17
2.749495e-18
-1.700623e-17
9.290430e-18
9.126773e-18
2.051511e-17
7.827958e-18
-6.715447e-18
-9.609861e-18
9.020183e-18
-2.980730e-17
-1.635592e-18
2.799041e-18
-2.751281e-19
-4.259343e-18
-1.687087e-17
-1.267687e-17
-1.229345e-17