# vtk DataFile Version 3.0
Resultado Projeto 3
ASCII
DATASET STRUCTURED_GRID
DIMENSIONS 140 60 1 
POINTS 8400 double
0.000000e+00 0.000000e+00 0.000000e+00
2.517986e-02 0.000000e+00 0.000000e+00
5.035971e-02 0.000000e+00 0.000000e+00
7.553957e-02 0.000000e+00 0.000000e+00
1.007194e-01 0.000000e+00 0.000000e+00
1.258993e-01 0.000000e+00 0.000000e+00
1.510791e-01 0.000000e+00 0.000000e+00
1.762590e-01 0.000000e+00 0.000000e+00
2.014388e-01 0.000000e+00 0.000000e+00
2.266187e-01 0.000000e+00 0.000000e+00
2.517986e-01 0.000000e+00 0.000000e+00
2.769784e-01 0.000000e+00 0.000000e+00
3.021583e-01 0.000000e+00 0.000000e+00
3.273381e-01 0.000000e+00 0.000000e+00
3.525180e-01 0.000000e+00 0.000000e+00
3.776978e-01 0.000000e+00 0.000000e+00
4.028777e-01 0.000000e+00 0.000000e+00
4.280576e-01 0.000000e+00 0.000000e+00
4.532374e-01 0.000000e+00 0.000000e+00
4.784173e-01 0.000000e+00 0.000000e+00
5.035971e-01 0.000000e+00 0.000000e+00
5.287770e-01 0.000000e+00 0.000000e+00
5.539568e-01 0.000000e+00 0.000000e+00
5.791367e-01 0.000000e+00 0.000000e+00
6.043165e-01 0.000000e+00 0.000000e+00
6.294964e-01 0.000000e+00 0.000000e+00
6.546763e-01 0.000000e+00 0.000000e+00
6.798561e-01 0.000000e+00 0.000000e+00
7.050360e-01 0.000000e+00 0.000000e+00
7.302158e-01 0.000000e+00 0.000000e+00
7.553957e-01 0.000000e+00 0.000000e+00
7.805755e-01 0.000000e+00 0.000000e+00
8.057554e-01 0.000000e+00 0.000000e+00
8.309353e-01 0.000000e+00 0.000000e+00
8.561151e-01 0.000000e+00 0.000000e+00
8.812950e-01 0.000000e+00 0.000000e+00
9.064748e-01 0.000000e+00 0.000000e+00
9.316547e-01 0.000000e+00 0.000000e+00
9.568345e-01 0.000000e+00 0.000000e+00
9.820144e-01 0.000000e+00 0.000000e+00
1.007194e+00 0.000000e+00 0.000000e+00
1.032374e+00 0.000000e+00 0.000000e+00
1.057554e+00 0.000000e+00 0.000000e+00
1.082734e+00 0.000000e+00 0.000000e+00
1.107914e+00 0.000000e+00 0.000000e+00
1.133094e+00 0.000000e+00 0.000000e+00
1.158273e+00 0.000000e+00 0.000000e+00
1.183453e+00 0.000000e+00 0.000000e+00
1.208633e+00 0.000000e+00 0.000000e+00
1.233813e+00 0.000000e+00 0.000000e+00
1.258993e+00 0.000000e+00 0.000000e+00
1.284173e+00 0.000000e+00 0.000000e+00
1.309353e+00 0.000000e+00 0.000000e+00
1.334532e+00 0.000000e+00 0.000000e+00
1.359712e+00 0.000000e+00 0.000000e+00
1.384892e+00 0.000000e+00 0.000000e+00
1.410072e+00 0.000000e+00 0.000000e+00
1.435252e+00 0.000000e+00 0.000000e+00
1.460432e+00 0.000000e+00 0.000000e+00
1.485612e+00 0.000000e+00 0.000000e+00
1.510791e+00 0.000000e+00 0.000000e+00
1.535971e+00 0.000000e+00 0.000000e+00
1.561151e+00 0.000000e+00 0.000000e+00
1.586331e+00 0.000000e+00 0.000000e+00
1.611511e+00 0.000000e+00 0.000000e+00
1.636691e+00 0.000000e+00 0.000000e+00
1.661871e+00 0.000000e+00 0.000000e+00
1.687050e+00 0.000000e+00 0.000000e+00
1.712230e+00 0.000000e+00 0.000000e+00
1.737410e+00 0.000000e+00 0.000000e+00
1.762590e+00 0.000000e+00 0.000000e+00
1.787770e+00 0.000000e+00 0.000000e+00
1.812950e+00 0.000000e+00 0.000000e+00
1.838129e+00 0.000000e+00 0.000000e+00
1.863309e+00 0.000000e+00 0.000000e+00
1.888489e+00 0.000000e+00 0.000000e+00
1.913669e+00 0.000000e+00 0.000000e+00
1.938849e+00 0.000000e+00 0.000000e+00
1.964029e+00 0.000000e+00 0.000000e+00
1.989209e+00 0.000000e+00 0.000000e+00
2.014388e+00 0.000000e+00 0.000000e+00
2.039568e+00 0.000000e+00 0.000000e+00
2.064748e+00 0.000000e+00 0.000000e+00
2.089928e+00 0.000000e+00 0.000000e+00
2.115108e+00 0.000000e+00 0.000000e+00
2.140288e+00 0.000000e+00 0.000000e+00
2.165468e+00 0.000000e+00 0.000000e+00
2.190647e+00 0.000000e+00 0.000000e+00
2.215827e+00 0.000000e+00 0.000000e+00
2.241007e+00 0.000000e+00 0.000000e+00
2.266187e+00 0.000000e+00 0.000000e+00
2.291367e+00 0.000000e+00 0.000000e+00
2.316547e+00 0.000000e+00 0.000000e+00
2.341727e+00 0.000000e+00 0.000000e+00
2.366906e+00 0.000000e+00 0.000000e+00
2.392086e+00 0.000000e+00 0.000000e+00
2.417266e+00 0.000000e+00 0.000000e+00
2.442446e+00 0.000000e+00 0.000000e+00
2.467626e+00 0.000000e+00 0.000000e+00
2.492806e+00 0.000000e+00 0.000000e+00
2.517986e+00 0.000000e+00 0.000000e+00
2.543165e+00 0.000000e+00 0.000000e+00
2.568345e+00 0.000000e+00 0.000000e+00
2.593525e+00 0.000000e+00 0.000000e+00
2.618705e+00 0.000000e+00 0.000000e+00
2.643885e+00 0.000000e+00 0.000000e+00
2.669065e+00 0.000000e+00 0.000000e+00
2.694245e+00 0.000000e+00 0.000000e+00
2.719424e+00 0.000000e+00 0.000000e+00
2.744604e+00 0.000000e+00 0.000000e+00
2.769784e+00 0.000000e+00 0.000000e+00
2.794964e+00 0.000000e+00 0.000000e+00
2.820144e+00 0.000000e+00 0.000000e+00
2.845324e+00 0.000000e+00 0.000000e+00
2.870504e+00 0.000000e+00 0.000000e+00
2.895683e+00 0.000000e+00 0.000000e+00
2.920863e+00 0.000000e+00 0.000000e+00
2.946043e+00 0.000000e+00 0.000000e+00
2.971223e+00 0.000000e+00 0.000000e+00
2.996403e+00 0.000000e+00 0.000000e+00
3.021583e+00 0.000000e+00 0.000000e+00
3.046763e+00 0.000000e+00 0.000000e+00
3.071942e+00 0.000000e+00 0.000000e+00
3.097122e+00 0.000000e+00 0.000000e+00
3.122302e+00 0.000000e+00 0.000000e+00
3.147482e+00 0.000000e+00 0.000000e+00
3.172662e+00 0.000000e+00 0.000000e+00
3.197842e+00 0.000000e+00 0.000000e+00
3.223022e+00 0.000000e+00 0.000000e+00
3.248201e+00 0.000000e+00 0.000000e+00
3.273381e+00 0.000000e+00 0.000000e+00
3.298561e+00 0.000000e+00 0.000000e+00
3.323741e+00 0.000000e+00 0.000000e+00
3.348921e+00 0.000000e+00 0.000000e+00
3.374101e+00 0.000000e+00 0.000000e+00
3.399281e+00 0.000000e+00 0.000000e+00
3.424460e+00 0.000000e+00 0.000000e+00
3.449640e+00 0.000000e+00 0.000000e+00
3.474820e+00 0.000000e+00 0.000000e+00
3.500000e+00 0.000000e+00 0.000000e+00
0.000000e+00 1.694915e-02 0.000000e+00
2.517986e-02 1.694915e-02 0.000000e+00
5.035971e-02 1.694915e-02 0.000000e+00
7.553957e-02 1.694915e-02 0.000000e+00
1.007194e-01 1.694915e-02 0.000000e+00
1.258993e-01 1.694915e-02 0.000000e+00
1.510791e-01 1.694915e-02 0.000000e+00
1.762590e-01 1.694915e-02 0.000000e+00
2.014388e-01 1.694915e-02 0.000000e+00
2.266187e-01 1.694915e-02 0.000000e+00
2.517986e-01 1.694915e-02 0.000000e+00
2.769784e-01 1.694915e-02 0.000000e+00
3.021583e-01 1.694915e-02 0.000000e+00
3.273381e-01 1.694915e-02 0.000000e+00
3.525180e-01 1.694915e-02 0.000000e+00
3.776978e-01 1.694915e-02 0.000000e+00
4.028777e-01 1.694915e-02 0.000000e+00
4.280576e-01 1.694915e-02 0.000000e+00
4.532374e-01 1.694915e-02 0.000000e+00
4.784173e-01 1.694915e-02 0.000000e+00
5.035971e-01 1.694915e-02 0.000000e+00
5.287770e-01 1.694915e-02 0.000000e+00
5.539568e-01 1.694915e-02 0.000000e+00
5.791367e-01 1.694915e-02 0.000000e+00
6.043165e-01 1.694915e-02 0.000000e+00
6.294964e-01 1.694915e-02 0.000000e+00
6.546763e-01 1.694915e-02 0.000000e+00
6.798561e-01 1.694915e-02 0.000000e+00
7.050360e-01 1.694915e-02 0.000000e+00
7.302158e-01 1.694915e-02 0.000000e+00
7.553957e-01 1.694915e-02 0.000000e+00
7.805755e-01 1.694915e-02 0.000000e+00
8.057554e-01 1.694915e-02 0.000000e+00
8.309353e-01 1.694915e-02 0.000000e+00
8.561151e-01 1.694915e-02 0.000000e+00
8.812950e-01 1.694915e-02 0.000000e+00
9.064748e-01 1.694915e-02 0.000000e+00
9.316547e-01 1.694915e-02 0.000000e+00
9.568345e-01 1.694915e-02 0.000000e+00
9.820144e-01 1.694915e-02 0.000000e+00
1.007194e+00 1.694915e-02 0.000000e+00
1.032374e+00 1.694915e-02 0.000000e+00
1.057554e+00 1.694915e-02 0.000000e+00
1.082734e+00 1.694915e-02 0.000000e+00
1.107914e+00 1.694915e-02 0.000000e+00
1.133094e+00 1.694915e-02 0.000000e+00
1.158273e+00 1.694915e-02 0.000000e+00
1.183453e+00 1.694915e-02 0.000000e+00
1.208633e+00 1.694915e-02 0.000000e+00
1.233813e+00 1.694915e-02 0.000000e+00
1.258993e+00 1.694915e-02 0.000000e+00
1.284173e+00 1.694915e-02 0.000000e+00
1.309353e+00 1.694915e-02 0.000000e+00
1.334532e+00 1.694915e-02 0.000000e+00
1.359712e+00 1.694915e-02 0.000000e+00
1.384892e+00 1.694915e-02 0.000000e+00
1.410072e+00 1.694915e-02 0.000000e+00
1.435252e+00 1.694915e-02 0.000000e+00
1.460432e+00 1.694915e-02 0.000000e+00
1.485612e+00 1.694915e-02 0.000000e+00
1.510791e+00 1.694915e-02 0.000000e+00
1.535971e+00 1.694915e-02 0.000000e+00
1.561151e+00 1.694915e-02 0.000000e+00
1.586331e+00 1.694915e-02 0.000000e+00
1.611511e+00 1.694915e-02 0.000000e+00
1.636691e+00 1.694915e-02 0.000000e+00
1.661871e+00 1.694915e-02 0.000000e+00
1.687050e+00 1.694915e-02 0.000000e+00
1.712230e+00 1.694915e-02 0.000000e+00
1.737410e+00 1.694915e-02 0.000000e+00
1.762590e+00 1.694915e-02 0.000000e+00
1.787770e+00 1.694915e-02 0.000000e+00
1.812950e+00 1.694915e-02 0.000000e+00
1.838129e+00 1.694915e-02 0.000000e+00
1.863309e+00 1.694915e-02 0.000000e+00
1.888489e+00 1.694915e-02 0.000000e+00
1.913669e+00 1.694915e-02 0.000000e+00
1.938849e+00 1.694915e-02 0.000000e+00
1.964029e+00 1.694915e-02 0.000000e+00
1.989209e+00 1.694915e-02 0.000000e+00
2.014388e+00 1.694915e-02 0.000000e+00
2.039568e+00 1.694915e-02 0.000000e+00
2.064748e+00 1.694915e-02 0.000000e+00
2.089928e+00 1.694915e-02 0.000000e+00
2.115108e+00 1.694915e-02 0.000000e+00
2.140288e+00 1.694915e-02 0.000000e+00
2.165468e+00 1.694915e-02 0.000000e+00
2.190647e+00 1.694915e-02 0.000000e+00
2.215827e+00 1.694915e-02 0.000000e+00
2.241007e+00 1.694915e-02 0.000000e+00
2.266187e+00 1.694915e-02 0.000000e+00
2.291367e+00 1.694915e-02 0.000000e+00
2.316547e+00 1.694915e-02 0.000000e+00
2.341727e+00 1.694915e-02 0.000000e+00
2.366906e+00 1.694915e-02 0.000000e+00
2.392086e+00 1.694915e-02 0.000000e+00
2.417266e+00 1.694915e-02 0.000000e+00
2.442446e+00 1.694915e-02 0.000000e+00
2.467626e+00 1.694915e-02 0.000000e+00
2.492806e+00 1.694915e-02 0.000000e+00
2.517986e+00 1.694915e-02 0.000000e+00
2.543165e+00 1.694915e-02 0.000000e+00
2.568345e+00 1.694915e-02 0.000000e+00
2.593525e+00 1.694915e-02 0.000000e+00
2.618705e+00 1.694915e-02 0.000000e+00
2.643885e+00 1.694915e-02 0.000000e+00
2.669065e+00 1.694915e-02 0.000000e+00
2.694245e+00 1.694915e-02 0.000000e+00
2.719424e+00 1.694915e-02 0.000000e+00
2.744604e+00 1.694915e-02 0.000000e+00
2.769784e+00 1.694915e-02 0.000000e+00
2.794964e+00 1.694915e-02 0.000000e+00
2.820144e+00 1.694915e-02 0.000000e+00
[...]
POINT_DATA 8400
SCALARS RES_Cont double
LOOKUP_TABLE default
0.000000e+00
0.000000e+00
0.000000e+00
0.000000e+00
0.000000e+00
0.000000e+00
0.000000e+00
0.000000e+00
0.000000e+00
0.000000e+00
0.000000e+00
0.000000e+00
0.000000e+00
0.000000e+00
0.000000e+00
0.000000e+00
0.000000e+00
0.000000e+00
0.000000e+00
0.000000e+00
0.000000e+00
0.000000e+00
0.000000e+00
0.000000e+00
0.000000e+00
0.000000e+00
0.000000e+00
0.000000e+00
0.000000e+00
0.000000e+00
0.000000e+00
0.000000e+00
0.000000e+00
0.000000e+00
0.000000e+00
0.000000e+00
0.000000e+00
0.000000e+00
0.000000e+00
0.000000e+00
0.000000e+00
0.000000e+00
0.000000e+00
0.000000e+00
0.000000e+00
0.000000e+00
0.000000e+00
0.000000e+00
0.000000e+00
0.000000e+00
0.000000e+00
0.000000e+00
0.000000e+00
0.000000e+00
0.000000e+00
0.000000e+00
0.000000e+00
0.000000e+00
0.000000e+00
0.000000e+00
0.000000e+00
0.000000e+00
0.000000e+00
0.000000e+00
0.000000e+00
0.000000e+00
0.000000e+00
0.000000e+00
0.000000e+00
0.000000e+00
0.000000e+00
0.000000e+00
0.000000e+00
0.000000e+00
0.000000e+00
0.000000e+00
0.000000e+00
0.000000e+00
0.000000e+00
0.000000e+00
0.000000e+00
0.000000e+00
0.000000e+00
0.000000e+00
0.000000e+00
0.000000e+00
0.000000e+00
0.000000e+00
0.000000e+00
0.000000e+00
0.000000e+00
0.000000e+00
0.000000e+00
0.000000e+00
0.000000e+00
0.000000e+00
0.000000e+00
0.000000e+00
0.000000e+00
0.000000e+00
0.000000e+00
0.000000e+00
0.000000e+00
0.000000e+00
0.000000e+00
0.000000e+00
0.000000e+00
0.000000e+00
0.000000e+00
0.000000e+00
0.000000e+00
0.000000e+00
0.000000e+00
0.000000e+00
0.000000e+00
0.000000e+00
0.000000e+00
0.000000e+00
0.000000e+00
0.000000e+00
0.000000e+00
0.000000e+00
0.000000e+00
0.000000e+00
0.000000e+00
0.000000e+00
0.000000e+00
0.000000e+00
0.000000e+00
0.000000e+00
0.000000e+00
0.000000e+00
0.000000e+00
0.000000e+00
0.000000e+00
0.000000e+00
0.000000e+00
0.000000e+00
0.000000e+00
0.000000e+00
0.000000e+00
-0.000000e+00
-0.000000e+00
-0.000000e+00
-0.000000e+00
-0.000000e+00
-0.000000e+00
3.951571e-19
-2.766100e-18
2.082467e-18
2.280046e-18
-4.179766e-18
-8.663792e-19
2.416391e-18
2.578590e-19
1.793992e-18
-1.484016e-18
-2.249020e-18
1.055251e-18
1.909380e-18
-1.665693e-18
4.132212e-18
-7.431019e-19
1.456216e-18
-1.145104e-18
3.624877e-19
4.338613e-18
-2.664903e-18
1.595629e-19
1.747706e-18
1.664343e-18
-2.373046e-18
-1.608582e-18
3.644665e-18
4.348978e-18
6.850600e-20
-7.551075e-19
2.530652e-18
4.542930e-18
9.264816e-19
4.364301e-18
1.814293e-18
-2.115780e-18
8.673690e-19
1.176758e-18
1.045381e-18
-1.685716e-18
-2.772364e-18
3.295152e-19
3.724252e-18
-9.234663e-19
-1.437991e-18
-2.393138e-18
-1.810037e-18
2.376832e-18
1.199084e-18
2.007573e-18
-2.389246e-18
-8.957267e-20
-7.074593e-18
-8.197990e-18
-4.917240e-18
-2.600100e-18
1.280164e-18
-3.484075e-19
-1.070645e-19
-6.407894e-19
1.011498e-18
4.364829e-18
1.031055e-17
6.991901e-18
3.109868e-18
1.842052e-17
-4.974901e-18
1.708358e-17
3.610804e-17
1.462241e-17
-1.188135e-17
-8.150995e-18
-1.226358e-17
-5.928824e-17
-3.843476e-17
7.534721e-18
6.556235e-18
4.326456e-19
2.286597e-17
6.357578e-18
1.289719e-17
1.010329e-17
2.159416e-17
-1.331563e-17
-1.425644e-17
3.699003e-19
-2.079532e-17
1.874019e-17
-1.592559e-18
-1.015958e-17
-1.505786e-17
-2.034614e-17
8.199690e-18
-5.875606e-18
-7.255642e-18
3.439928e-17
-1.606699e-17
1.160432e-17
2.196872e-17
3.995431e-19
2.804139e-17
1.530294e-17
-1.166373e-17
-1.717303e-17
-1.915401e-17
-1.100705e-17
2.424089e-17
3.177852e-17
9.151283e-17
2.361603e-16
5.678402e-16
1.426823e-15
3.659189e-15
9.234993e-15
2.272258e-14
5.449365e-14
1.282728e-13
2.964019e-13
6.726679e-13
1.499305e-12
3.282352e-12
7.058099e-12
1.490836e-11
3.093498e-11
6.306473e-11
1.263212e-10
2.486280e-10
4.808771e-10
9.140021e-10
1.707262e-09
3.133964e-09
5.653534e-09
0.000000e+00
0.000000e+00
-0.000000e+00
-0.000000e+00
-0.000000e+00
-0.000000e+00
-0.000000e+00
3.951571e-19
-5.927357e-19
1.778207e-18
7.903142e-19
-3.769777e-18
-1.094574e-18
5.684329e-18
1.580628e-18
-2.141795e-18
-1.059195e-18
-1.647168e-18
3.473138e-18
-2.332029e-18
-2.948863e-18
1.142524e-19
-1.188830e-18
-2.499037e-19
-1.506236e-18
-5.300042e-19
-3.108179e-19
-1.920235e-18
-4.955105e-19
1.166480e-18
3.671948e-19
-3.355834e-18
-1.155415e-18
2.455278e-19
5.316550e-19
2.620430e-18
1.400238e-18
-2.107697e-18
-2.740523e-18
-3.314508e-18
1.882661e-18
4.323399e-18
2.409295e-18
8.413603e-19
1.565596e-18
-3.045151e-18
5.722111e-19
1.852900e-18
-1.181964e-18
2.392033e-18
5.498183e-18
1.081032e-18
-2.502810e-18
8.926678e-19
-3.548044e-19
-2.529597e-18
4.596145e-19
-4.038477e-18
-1.881906e-18
-3.330226e-18
-2.746136e-18
-5.694226e-19
-3.685253e-18
1.317544e-18
-9.645446e-19
-1.011678e-17
1.068658e-18
4.480888e-18
1.943646e-17
1.119422e-17
5.240655e-18
-9.296592e-18
-9.824184e-18
-1.497026e-17
2.024250e-18
-4.287479e-18
4.927824e-18
2.516439e-17
2.048198e-17
-1.958389e-18
5.081372e-19
5.718787e-18
-2.854728e-17
-4.215260e-17
-7.210955e-18
-3.738059e-18
1.871620e-17
8.989618e-18
1.922106e-17
3.610621e-17
7.173828e-18
-1.674885e-17
-1.289259e-17
-1.193816e-17
1.240589e-17
1.122142e-17
3.155271e-18
-1.101262e-18
1.276125e-17
1.236759e-17
-1.226095e-17
2.574140e-17
1.042618e-17
2.222112e-17
-3.091183e-17
-1.343793e-17
-5.080621e-18
-1.790535e-18
1.555828e-17
3.150711e-17
1.848772e-17
-1.593745e-17
-2.057531e-17
-2.566960e-17
1.714949e-17
1.126819e-17
7.837232e-17
2.413190e-16
5.805575e-16
1.451291e-15
3.672741e-15
9.211894e-15
2.257875e-14
5.422068e-14
1.277022e-13
2.951320e-13
6.698840e-13
1.493222e-12
3.269199e-12
7.030391e-12
1.485131e-11
3.082022e-11
6.283893e-11
1.258861e-10
2.478057e-10
4.793508e-10
9.112163e-10
1.702255e-09
3.125092e-09
5.638027e-09
0.000000e+00
0.000000e+00
-0.000000e+00
-0.000000e+00
-0.000000e+00
-0.000000e+00
3.951571e-19
-7.903142e-19
3.860674e-18
3.465517e-18
-2.281951e-19
-2.447008e-18
2.203981e-18
1.808823e-18
-3.236369e-18
-2.306852e-18
-5.389186e-18
-2.049945e-18
1.842022e-18
-1.870616e-18
-2.390579e-18
2.077771e-18
1.190351e-18
1.120886e-18
2.665746e-18
1.324736e-18
-3.529972e-19
-4.207158e-18
-5.929693e-18
3.142990e-18
2.861876e-18
2.774320e-18
4.709713e-18
5.189744e-18
3.222058e-18
-2.610998e-18
-2.159605e-18
-9.355178e-19
5.835725e-18
3.837747e-18
1.958387e-18
-1.554788e-18
-1.532807e-19
-2.019009e-18
8.483620e-19
3.674484e-18
5.930178e-18
3.329660e-18
7.435956e-19
2.368848e-18
-4.695952e-18
-2.057423e-19
-4.814028e-18
-2.707307e-18
3.059113e-18
3.841811e-18
-2.988645e-18
-1.069870e-18
-2.995408e-18
3.241929e-18
4.582503e-18
1.133781e-17
1.835270e-17
3.026854e-18
-2.728510e-18
5.873627e-18
1.291237e-17
-5.560497e-18
-9.504552e-18
1.753766e-18
-8.211761e-18
-9.495238e-18
-3.161726e-17
-2.310033e-17
-1.429627e-17
-1.079757e-17
-4.601503e-18
-2.255663e-19
4.275242e-17
2.290158e-17
3.954029e-17
4.140222e-17
1.418369e-17
-2.093939e-17
-6.105233e-17
-8.911685e-18
9.493205e-18
3.859809e-17
1.006467e-17
9.911618e-18
6.923242e-18
1.330826e-17
3.557339e-18
8.036326e-18
-1.058927e-17
-7.604171e-19
-1.307619e-17
2.544374e-17
1.311454e-17
2.985145e-17
3.363020e-17
1.285425e-17
1.652598e-17
8.206511e-18
-1.331007e-18
-2.002578e-17
-5.518695e-17
5.473205e-19
1.987467e-17
3.179735e-17
5.527416e-17
-8.909865e-18
-1.832514e-17
-1.271174e-17
-1.540971e-17
-9.350788e-18
6.568122e-17
2.431145e-16
5.872329e-16
1.482336e-15
3.699047e-15
9.147072e-15
2.239496e-14
5.379881e-14
1.266760e-13
2.929485e-13
6.650705e-13
1.482718e-12
3.246623e-12
6.982918e-12
1.475374e-11
3.062413e-11
6.245331e-11
1.251429e-10
2.464011e-10
4.767435e-10
9.064568e-10
1.693701e-09
3.109943e-09
5.611571e-09
0.000000e+00
0.000000e+00
-0.000000e+00
-0.000000e+00
-0.000000e+00
-0.000000e+00
-1.185471e-18
-1.778207e-18
5.018387e-19
-7.903142e-19
-1.702142e-18
-2.492456e-18
-4.099891e-19
-2.567569e-18
-3.052670e-18
3.484159e-18
3.250249e-18
9.608108e-19
5.714947e-19
1.966226e-18
4.102155e-18
-1.427212e-19
-2.586798e-18
5.816246e-19
2.385772e-19
1.185972e-19
6.896002e-19
1.203048e-18
-3.231563e-18
3.270810e-18
4.240086e-18
-3.184482e-19
1.205540e-18
2.954859e-18
1.247173e-18
-3.827433e-18
-2.101202e-18
1.212710e-18
1.292188e-18
1.684053e-18
6.744768e-19
8.375291e-19
-3.405989e-18
2.239175e-19
-6.107090e-19
-1.911921e-18
-1.314699e-18
-2.699108e-18
1.166268e-18
2.938465e-18
2.394399e-18
1.847187e-18
-1.772777e-18
1.645922e-18
3.141912e-18
3.599746e-18
2.483569e-19
2.176681e-19
-1.466956e-18
-2.760353e-18
-3.075776e-18
-2.144067e-18
-1.505107e-17
-1.818331e-18
6.297918e-18
1.362426e-17
7.280184e-18
-1.299768e-18
-1.583309e-17
-1.490366e-17
3.915069e-19
2.058161e-18
3.525050e-18
-2.407745e-17
-3.405906e-17
-2.320260e-17
-2.940588e-17
6.040969e-18
4.764403e-17
4.317220e-17
3.466419e-17
3.407412e-17
2.778857e-17
-1.193717e-17
-4.060140e-17
-6.111399e-17
-3.887912e-18
3.051395e-17
-1.762591e-17
-7.340722e-18
-9.713472e-18
7.226310e-19
-3.186999e-18
-9.926373e-18
1.802237e-17
-6.866946e-18
-8.728385e-18
1.518912e-17
4.755490e-18
6.081731e-18
2.695749e-17
2.423500e-18
2.087096e-17
-7.211212e-18
-3.200849e-18
-2.517521e-17
-4.709367e-17
-1.151165e-17
2.952258e-17
3.940698e-17
4.734348e-17
4.967988e-17
1.065891e-17
-4.830399e-18
-1.969763e-18
-2.445530e-17
6.005504e-17
2.307456e-16
5.671517e-16
1.466092e-15
3.666405e-15
9.085133e-15
2.215628e-14
5.318832e-14
1.253186e-13
2.897988e-13
6.580722e-13
1.467479e-12
3.213971e-12
6.914316e-12
1.461282e-11
3.034085e-11
6.189562e-11
1.240671e-10
2.443651e-10
4.729595e-10
8.995426e-10
1.681267e-09
3.087920e-09
5.573127e-09
0.000000e+00
0.000000e+00
-0.000000e+00
-0.000000e+00
-0.000000e+00
-0.000000e+00
-5.927357e-19
9.878928e-19
-4.362513e-18
-4.255831e-18
-1.732758e-18
-1.383050e-18
-6.381842e-19
-2.567569e-18
1.020414e-18
2.245619e-18
-1.634516e-18
5.327126e-18
-2.904785e-18
-9.230163e-19
1.485018e-18
2.672051e-18
2.063970e-19
-2.238017e-20
-1.643661e-18
-7.662183e-20
1.535274e-19
1.144770e-18
8.446847e-19
3.855906e-18
5.347668e-18
3.051649e-18
-1.541644e-18
-1.476622e-18
3.682130e-18
-2.767742e-18
-5.796267e-18
-2.240880e-18
-3.815631e-18
-9.270144e-19
-3.487145e-18
-4.054487e-18
6.282641e-19
3.534200e-18
-3.217555e-18
-5.124007e-18
-3.101420e-18
-3.914212e-18
-3.938398e-18
-1.460710e-18
-2.023995e-18
1.089618e-18
-1.791586e-19
1.466719e-18
5.190307e-19
-3.361143e-19
2.856534e-18
9.981056e-19
-2.934679e-18
-3.420899e-18
1.031735e-18
2.034868e-18
2.993714e-18
4.641792e-18
3.733772e-19
1.458707e-17
-5.215481e-18
-1.279112e-17
-2.027699e-17
1.063425e-17
-2.689003e-18
1.472179e-17
3.773990e-18
3.462975e-18
-2.085909e-17
-2.990953e-17
-2.062919e-18
6.754751e-18
2.864692e-17
2.655353e-17
1.137504e-17
6.968518e-18
3.565594e-17
2.901561e-18
-1.560705e-17
-3.289697e-17
-1.568085e-17
3.163814e-18
2.162849e-17
2.485633e-17
-1.464374e-18
1.268105e-17
9.393558e-18
-6.267997e-19
-6.714497e-18
-3.054807e-18
-1.110072e-17
-1.783307e-17
-1.351791e-17
8.914575e-18
1.993075e-17
3.992976e-18
1.594712e-17
-6.395878e-18
4.915729e-19
-3.573951e-17
-1.491731e-17
-6.385144e-18
6.150192e-18
3.203961e-17
2.780466e-17
3.118871e-17
4.691006e-17
-3.320372e-18
-1.521066e-17
-1.570089e-18
3.967636e-17
1.940463e-16
5.367894e-16
1.443939e-15
3.619402e-15
8.969485e-15
2.186483e-14
5.242477e-14
1.234846e-13
2.856177e-13
6.488477e-13
1.447303e-12
3.170777e-12
6.823796e-12
1.442683e-11
2.996668e-11
6.115820e-11
1.226421e-10
2.416635e-10
4.679299e-10
8.903395e-10
1.664702e-09
3.058569e-09
5.521910e-09
0.000000e+00
0.000000e+00
-0.000000e+00
-0.000000e+00
-0.000000e+00
-0.000000e+00
2.766100e-18
-5.152827e-18
-2.477624e-18
1.930337e-18
-4.741885e-18
-5.046145e-18
-5.030361e-18
1.337601e-18
9.673453e-19
9.851687e-19
1.162058e-18
-5.777967e-18
-1.634434e-20
-1.385565e-18
-2.020985e-18
-3.930343e-18
-3.967699e-18
-2.690017e-18
-2.578344e-18
1.346780e-18
3.157404e-18
-3.385715e-19
4.692545e-19
-4.188508e-19
2.458834e-18
-2.400677e-19
9.292433e-20
-2.277676e-19
-2.579132e-18
-1.365804e-18
-5.326237e-18
8.606943e-19
-4.435968e-19
-3.284343e-19
-2.350323e-18
3.033806e-18
3.153812e-18
-2.559218e-18
1.898159e-18
-3.757391e-18
-1.900021e-18
2.447347e-18
-4.266181e-18
1.678164e-18
-1.352496e-18
1.384705e-18
3.514409e-18
3.044689e-18
3.121741e-18
1.600772e-18
-7.502879e-19
1.795726e-18
7.404632e-19
-2.572312e-18
6.638119e-18
3.419901e-18
1.066759e-19
-1.601062e-18
-3.439984e-18
-0.000000e+00
-1.769024e-18
-6.247814e-18
-9.014399e-18
-8.401641e-18
7.274779e-18
2.211022e-17
1.501484e-18
-4.380919e-18
-2.656012e-18
-1.905150e-18
-1.368610e-17
-1.624446e-17
-1.017572e-18
-1.338785e-18
-3.018051e-18
1.492811e-17
1.129148e-17
8.691497e-18
-3.995890e-18
4.652369e-18
-4.085645e-17
-6.561008e-17
-2.981214e-17
-2.852081e-19
-2.755108e-18
3.787517e-17
3.616203e-17
6.749254e-18
5.870613e-18
-2.102860e-17
-5.238145e-18
4.314445e-18
-2.020592e-17
-1.845803e-17
-6.596713e-18
3.271532e-17
1.656341e-17
1.906085e-18
-1.588576e-17
1.846433e-18
7.783856e-19
-1.449154e-17
-2.006299e-17
1.155369e-17
1.160344e-17
4.733676e-17
3.905304e-17
4.419007e-17
2.662970e-17
3.128700e-17
2.108431e-17
1.615881e-16
4.915198e-16
1.405299e-15
3.527313e-15
8.784714e-15
2.147281e-14
5.145687e-14
1.212424e-13
2.804987e-13
6.373361e-13
1.422160e-12
3.116984e-12
6.710930e-12
1.419496e-11
2.949965e-11
6.023608e-11
1.208569e-10
2.382721e-10
4.616041e-10
8.787458e-10
1.643811e-09
3.021536e-09
5.457300e-09
0.000000e+00
0.000000e+00
-0.000000e+00
-0.000000e+00
-0.000000e+00
1.975786e-19
8.969958e-19
-3.556414e-18
4.712221e-19
3.723376e-18
1.139070e-18
2.856997e-18
8.812112e-19
9.376813e-19
-3.161006e-19
2.466051e-18
-5.883554e-18
-9.326510e-19
-2.137768e-18
-1.880961e-19
-4.688545e-18
-3.854506e-18
-4.145058e-18
3.623540e-18
3.128144e-18
-2.394108e-18
-4.161122e-18
-2.418186e-18
-4.006973e-18
-4.925393e-18
-3.557488e-18
-5.522010e-18
-7.042314e-19
-6.779225e-19
2.698864e-18
1.038692e-18
2.080437e-18
2.517960e-18
1.354067e-18
6.641720e-19
3.164657e-18
4.514792e-18
2.208498e-18
-3.023903e-18
2.961375e-18
-5.504581e-19
3.370154e-18
2.714949e-18
3.659368e-18
3.088840e-18
1.615759e-18
-2.387572e-18
2.700616e-18
-2.611941e-19
-4.286718e-19
2.371559e-18
3.310161e-18
1.562975e-18
4.286514e-19
3.478502e-18
-2.136493e-18
-5.012728e-18
-9.187100e-18
-3.017764e-18
-4.812316e-18
-0.000000e+00
-4.467999e-18
1.115896e-17
-1.512016e-18
3.188704e-18
1.528531e-17
-3.819219e-18
-8.190427e-18
4.583267e-18
1.174389e-17
8.719726e-18
2.645858e-18
-1.560390e-17
-5.300524e-19
-9.841809e-18
-3.136006e-17
-1.964206e-17
1.522011e-17
2.407403e-17
1.041770e-17
2.620012e-17
1.592901e-17
-4.963371e-17
-5.694194e-17
-1.352702e-17
1.030514e-17
1.411838e-17
4.894113e-17
2.390996e-17
2.714298e-17
3.775343e-18
8.992626e-18
1.947543e-17
-1.937950e-17
-2.793026e-17
1.421715e-17
-2.655177e-18
2.198131e-17
1.754807e-17
1.279870e-17
3.989245e-18
-4.430494e-18
-2.371074e-17
-2.031006e-17
-3.437039e-17
-2.128929e-18
1.025209e-17
6.309015e-17
5.495444e-17
5.860679e-17
3.827594e-17
7.158666e-17
1.614249e-16
4.837587e-16
1.326567e-15
3.431755e-15
8.572239e-15
2.095924e-14
5.033460e-14
1.185024e-13
2.743291e-13
6.235313e-13
1.392009e-12
3.052516e-12
6.575761e-12
1.391692e-11
2.893900e-11
5.912739e-11
1.187060e-10
2.341772e-10
4.539501e-10
8.646935e-10
1.618457e-09
2.976561e-09
5.378836e-09
0.000000e+00
0.000000e+00
-0.000000e+00
-0.000000e+00
-0.000000e+00
-1.383050e-18
3.951571e-18
3.161257e-18
1.975786e-19
-4.255831e-18
-2.477624e-18
2.385775e-18
3.612884e-18
9.521038e-19
-3.329857e-18
1.064902e-18
1.161799e-18
-2.797176e-18
-2.440564e-19
-1.517235e-18
-3.029095e-18
-1.894020e-18
2.821182e-18
4.581319e-18
-6.564316e-18
-2.459873e-18
-4.308280e-18
4.557053e-18
-2.775647e-18
-3.057978e-18
-9.120768e-19
4.975771e-19
-2.765737e-18
1.314360e-18
6.883576e-19
2.627138e-18
-1.335061e-18
5.626122e-18
-2.293985e-19
4.035289e-18
-1.925657e-18
7.895546e-19
-4.648768e-18
9.245796e-19
-1.708933e-19
5.993321e-18
1.283749e-18
1.718779e-18
-1.811689e-18
-6.505692e-18
-9.409583e-19
-3.131113e-18
-6.104660e-18
-3.275435e-18
-1.607916e-18
-5.126215e-18
-5.058907e-18
2.946414e-19
-4.172675e-18
-2.455906e-18
-2.649507e-18
-4.278159e-18
4.323490e-19
-8.777602e-18
-6.220167e-18
-5.590336e-19
5.027236e-18
-5.123151e-18
-1.138167e-17
-4.079130e-18
1.192413e-17
2.142119e-17
5.933512e-20
1.259453e-17
9.586733e-18
6.625090e-18
-1.056502e-17
-2.112189e-18
-1.955941e-17
-1.794493e-17
-2.317604e-17
-5.031148e-17
-1.784103e-18
1.998996e-17
4.708375e-17
4.308977e-17
4.713080e-17
-1.378822e-17
-5.190314e-17
-3.772043e-17
1.125395e-17
2.269293e-17
8.343594e-18
5.095345e-19
8.628280e-18
3.459302e-17
1.116623e-17
-1.124692e-17
1.478116e-17
-2.728543e-18
-1.183759e-17
1.264709e-19
-3.287342e-19
-3.560907e-18
-5.623893e-18
-1.599668e-17
-4.318371e-18
7.954165e-18
1.497441e-17
-9.195373e-18
-1.016403e-17
1.183300e-17
4.194248e-17
5.982846e-17
6.298301e-17
6.905875e-17
4.784520e-17
1.460293e-16
4.663400e-16
1.265877e-15
3.266269e-15
8.333259e-15
2.036823e-14
4.891599e-14
1.153451e-13
2.671189e-13
6.074574e-13
1.356979e-12
2.977588e-12
6.418509e-12
1.359332e-11
2.828561e-11
5.783286e-11
1.161894e-10
2.293756e-10
4.449564e-10
8.481509e-10
1.588567e-09
2.923493e-09
5.286226e-09
0.000000e+00
0.000000e+00
-0.000000e+00
3.951571e-19
1.975786e-19
-1.489731e-18
2.173364e-18
-3.739160e-18
-1.565796e-18
-2.523073e-18
-7.903142e-19
-2.616827e-18
3.724872e-18
3.879993e-18
-2.322369e-18
-2.741734e-18
-4.922510e-18
8.663946e-19
1.057796e-18
4.711190e-18
4.915219e-18
4.684933e-18
2.252990e-18
2.047019e-19
-4.373243e-19
2.706694e-18
1.158522e-18
-2.549784e-18
2.831140e-18
7.222716e-21
2.615466e-19
4.887267e-18
4.184201e-18
2.200026e-18
2.041208e-18
-1.356908e-18
3.386299e-19
1.561706e-18
4.088948e-18
-1.717247e-18
-3.969749e-19
-8.491527e-19
6.345435e-19
-2.951444e-18
1.381385e-20
-1.588649e-18
-9.441549e-19
-2.486457e-19
-3.613226e-18
-7.164299e-18
3.585058e-19
-2.270453e-18
6.430559e-19
-9.111971e-19
-2.365477e-18
2.505819e-18
1.338973e-18
-7.486444e-19
-4.696352e-18
-3.359769e-18
-2.356699e-18
1.301066e-18
1.760868e-18
2.225689e-19
2.461561e-18
6.749967e-18
-2.686987e-18
-4.613200e-18
-2.067245e-17
-5.661644e-18
1.143638e-17
2.146537e-18
2.464878e-17
-2.487222e-18
2.738375e-17
2.124945e-17
-4.542375e-18
-1.322442e-18
-1.266204e-17
-1.667655e-17
-2.636871e-17
-3.009178e-17
-2.506513e-17
1.362774e-17
7.946812e-18
3.107917e-17
4.292082e-17
1.267175e-17
3.986156e-18
-2.877786e-17
-5.510522e-17
-7.174117e-18
8.041100e-18
4.020275e-19
1.977198e-17
1.682082e-17
-9.339708e-18
-9.152387e-19
-2.083205e-17
-1.389771e-17
-5.949525e-18
1.447628e-18
-1.626541e-17
1.227707e-17
1.867614e-17
4.017430e-18
-8.475527e-18
7.487659e-18
1.015977e-17
-6.647792e-18
1.478979e-17
6.389374e-18
-5.211129e-18
1.419531e-18
7.714966e-17
5.985884e-17
6.287459e-17
1.743334e-16
4.535850e-16
1.192776e-15
3.154662e-15
8.021751e-15
1.967908e-14
4.735844e-14
1.117042e-13
2.588956e-13
5.892250e-13
1.317197e-12
2.892459e-12
6.239869e-12
1.322527e-11
2.754142e-11
5.635592e-11
1.133124e-10
2.238746e-10
4.346310e-10
8.291227e-10
1.554132e-09
2.862286e-09
5.179350e-09
0.000000e+00
0.000000e+00
-0.000000e+00
-1.185471e-18
-5.927357e-19
1.778207e-18
-2.884755e-19
1.185471e-18
-1.109406e-18
-2.599138e-18
-1.688672e-19
2.726910e-18
3.181938e-18
-2.379925e-18
-3.106442e-19
1.082809e-18
3.460176e-18
-2.623957e-18
-5.200868e-18
-1.486190e-18
9.352707e-19
4.187716e-18
2.114603e-18
2.232188e-18
3.836054e-18
1.511615e-18
-3.619074e-18
4.140432e-18
6.727432e-18
6.493755e-19
3.441297e-18
-6.738865e-20
3.371942e-18
-5.311583e-19
-4.126816e-18
1.333178e-18
-1.420494e-18
-4.059790e-18
-4.876800e-18
-2.056099e-18
6.091653e-19
1.241460e-18
3.588870e-18
2.318008e-18
-4.459947e-18
3.330802e-18
-2.919271e-18
-7.015435e-19
5.659081e-19
4.473704e-18
6.228821e-18
6.129396e-18
2.438909e-18
2.586629e-18
-2.827136e-18
-7.496244e-19
7.483290e-19
-1.280368e-18
-4.801325e-18
4.293348e-19
-8.266743e-18
-5.739120e-18
-3.343935e-18
2.938692e-18
1.800847e-17
-3.050137e-18
-5.255147e-18
-7.876941e-18
-2.688658e-17
9.039632e-18
4.338592e-18
9.475483e-18
-1.579095e-17
7.722241e-18
-5.162484e-18
1.327978e-17
3.081603e-17
5.615757e-18
-1.482677e-17
-2.315151e-17
-1.274400e-18
-3.383951e-17
-2.464760e-17
-1.810311e-17
2.572678e-17
3.514061e-17
4.974290e-17
3.717544e-17
-1.397103e-17
-3.756651e-17
-5.754812e-17