# vtk DataFile Version 3.0
Resultado Projeto 3
ASCII
DATASET STRUCTURED_GRID
DIMENSIONS 70 30 1 
POINTS 2100 double
0.000000e+00 0.000000e+00 0.000000e+00
5.072464e-02 0.000000e+00 0.000000e+00
1.014493e-01 0.000000e+00 0.000000e+00
1.521739e-01 0.000000e+00 0.000000e+00
2.028986e-01 0.000000e+00 0.000000e+00
2.536232e-01 0.000000e+00 0.000000e+00
3.043478e-01 0.000000e+00 0.000000e+00
3.550725e-01 0.000000e+00 0.000000e+00
4.057971e-01 0.000000e+00 0.000000e+00
4.565217e-01 0.000000e+00 0.000000e+00
5.072464e-01 0.000000e+00 0.000000e+00
5.579710e-01 0.000000e+00 0.000000e+00
6.086957e-01 0.000000e+00 0.000000e+00
6.594203e-01 0.000000e+00 0.000000e+00
7.101449e-01 0.000000e+00 0.000000e+00
7.608696e-01 0.000000e+00 0.000000e+00
8.115942e-01 0.000000e+00 0.000000e+00
8.623188e-01 0.000000e+00 0.000000e+00
9.130435e-01 0.000000e+00 0.000000e+00
9.637681e-01 0.000000e+00 0.000000e+00
1.014493e+00 0.000000e+00 0.000000e+00
1.065217e+00 0.000000e+00 0.000000e+00
1.115942e+00 0.000000e+00 0.000000e+00
1.166667e+00 0.000000e+00 0.000000e+00
1.217391e+00 0.000000e+00 0.000000e+00
1.268116e+00 0.000000e+00 0.000000e+00
1.318841e+00 0.000000e+00 0.000000e+00
1.369565e+00 0.000000e+00 0.000000e+00
1.420290e+00 0.000000e+00 0.000000e+00
1.471014e+00 0.000000e+00 0.000000e+00
1.521739e+00 0.000000e+00 0.000000e+00
1.572464e+00 0.000000e+00 0.000000e+00
1.623188e+00 0.000000e+00 0.000000e+00
1.673913e+00 0.000000e+00 0.000000e+00
1.724638e+00 0.000000e+00 0.000000e+00
1.775362e+00 0.000000e+00 0.000000e+00
1.826087e+00 0.000000e+00 0.000000e+00
1.876812e+00 0.000000e+00 0.000000e+00
1.927536e+00 0.000000e+00 0.000000e+00
1.978261e+00 0.000000e+00 0.000000e+00
2.028986e+00 0.000000e+00 0.000000e+00
2.079710e+00 0.000000e+00 0.000000e+00
2.130435e+00 0.000000e+00 0.000000e+00
2.181159e+00 0.000000e+00 0.000000e+00
2.231884e+00 0.000000e+00 0.000000e+00
2.282609e+00 0.000000e+00 0.000000e+00
2.333333e+00 0.000000e+00 0.000000e+00
2.384058e+00 0.000000e+00 0.000000e+00
2.434783e+00 0.000000e+00 0.000000e+00
2.485507e+00 0.000000e+00 0.000000e+00
2.536232e+00 0.000000e+00 0.000000e+00
2.586957e+00 0.000000e+00 0.000000e+00
2.637681e+00 0.000000e+00 0.000000e+00
2.688406e+00 0.000000e+00 0.000000e+00
2.739130e+00 0.000000e+00 0.000000e+00
2.789855e+00 0.000000e+00 0.000000e+00
2.840580e+00 0.000000e+00 0.000000e+00
2.891304e+00 0.000000e+00 0.000000e+00
2.942029e+00 0.000000e+00 0.000000e+00
2.992754e+00 0.000000e+00 0.000000e+00
3.043478e+00 0.000000e+00 0.000000e+00
3.094203e+00 0.000000e+00 0.000000e+00
3.144928e+00 0.000000e+00 0.000000e+00
3.195652e+00 0.000000e+00 0.000000e+00
3.246377e+00 0.000000e+00 0.000000e+00
3.297101e+00 0.000000e+00 0.000000e+00
3.347826e+00 0.000000e+00 0.000000e+00
3.398551e+00 0.000000e+00 0.000000e+00
3.449275e+00 0.000000e+00 0.000000e+00
3.500000e+00 0.000000e+00 0.000000e+00
0.000000e+00 3.448276e-02 0.000000e+00
5.072464e-02 3.448276e-02 0.000000e+00
1.014493e-01 3.448276e-02 0.000000e+00
1.521739e-01 3.448276e-02 0.000000e+00
2.028986e-01 3.448276e-02 0.000000e+00
2.536232e-01 3.448276e-02 0.000000e+00
3.043478e-01 3.448276e-02 0.000000e+00
3.550725e-01 3.448276e-02 0.000000e+00
4.057971e-01 3.448276e-02 0.000000e+00
4.565217e-01 3.448276e-02 0.000000e+00
5.072464e-01 3.448276e-02 0.000000e+00
5.579710e-01 3.448276e-02 0.000000e+00
6.086957e-01 3.448276e-02 0.000000e+00
6.594203e-01 3.448276e-02 0.000000e+00
7.101449e-01 3.448276e-02 0.000000e+00
7.608696e-01 3.448276e-02 0.000000e+00
8.115942e-01 3.448276e-02 0.000000e+00
8.623188e-01 3.448276e-02 0.000000e+00
9.130435e-01 3.448276e-02 0.000000e+00
9.637681e-01 3.448276e-02 0.000000e+00
1.014493e+00 3.448276e-02 0.000000e+00
1.065217e+00 3.448276e-02 0.000000e+00
1.115942e+00 3.448276e-02 0.000000e+00
1.166667e+00 3.448276e-02 0.000000e+00
1.217391e+00 3.448276e-02 0.000000e+00
1.268116e+00 3.448276e-02 0.000000e+00
1.318841e+00 3.448276e-02 0.000000e+00
1.369565e+00 3.448276e-02 0.000000e+00
1.420290e+00 3.448276e-02 0.000000e+00
1.471014e+00 3.448276e-02 0.000000e+00
1.521739e+00 3.448276e-02 0.000000e+00
1.572464e+00 3.448276e-02 0.000000e+00
1.623188e+00 3.448276e-02 0.000000e+00
1.673913e+00 3.448276e-02 0.000000e+00
1.724638e+00 3.448276e-02 0.000000e+00
1.775362e+00 3.448276e-02 0.000000e+00
1.826087e+00 3.448276e-02 0.000000e+00
1.876812e+00 3.448276e-02 0.000000e+00
1.927536e+00 3.448276e-02 0.000000e+00
1.978261e+00 3.448276e-02 0.000000e+00
2.028986e+00 3.448276e-02 0.000000e+00
2.079710e+00 3.448276e-02 0.000000e+00
2.130435e+00 3.448276e-02 0.000000e+00
2.181159e+00 3.448276e-02 0.000000e+00
2.231884e+00 3.448276e-02 0.000000e+00
2.282609e+00 3.448276e-02 0.000000e+00
2.333333e+00 3.448276e-02 0.000000e+00
2.384058e+00 3.448276e-02 0.000000e+00
2.434783e+00 3.448276e-02 0.000000e+00
2.485507e+00 3.448276e-02 0.000000e+00
2.536232e+00 3.448276e-02 0.000000e+00
2.586957e+00 3.448276e-02 0.000000e+00
2.637681e+00 3.448276e-02 0.000000e+00
2.688406e+00 3.448276e-02 0.000000e+00
2.739130e+00 3.448276e-02 0.000000e+00
2.789855e+00 3.448276e-02 0.000000e+00
2.840580e+00 3.448276e-02 0.000000e+00
2.891304e+00 3.448276e-02 0.000000e+00
2.942029e+00 3.448276e-02 0.000000e+00
2.992754e+00 3.448276e-02 0.000000e+00
3.043478e+00 3.448276e-02 0.000000e+00
3.094203e+00 3.448276e-02 0.000000e+00
3.144928e+00 3.448276e-02 0.000000e+00
3.195652e+00 3.448276e-02 0.000000e+00
3.246377e+00 3.448276e-02 0.000000e+00
3.297101e+00 3.448276e-02 0.000000e+00
3.347826e+00 3.448276e-02 0.000000e+00
3.398551e+00 3.448276e-02 0.000000e+00
3.449275e+00 3.448276e-02 0.000000e+00
3.500000e+00 3.448276e-02 0.000000e+00
0.000000e+00 6.896552e-02 0.000000e+00
5.072464e-02 6.896552e-02 0.000000e+00
1.014493e-01 6.896552e-02 0.000000e+00
1.521739e-01 6.896552e-02 0.000000e+00
2.028986e-01 6.896552e-02 0.000000e+00
2.536232e-01 6.896552e-02 0.000000e+00
3.043478e-01 6.896552e-02 0.000000e+00
3.550725e-01 6.896552e-02 0.000000e+00
4.057971e-01 6.896552e-02 0.000000e+00
4.565217e-01 6.896552e-02 0.000000e+00
5.072464e-01 6.896552e-02 0.000000e+00
5.579710e-01 6.896552e-02 0.000000e+00
6.086957e-01 6.896552e-02 0.000000e+00
6.594203e-01 6.896552e-02 0.000000e+00
7.101449e-01 6.896552e-02 0.000000e+00
7.608696e-01 6.896552e-02 0.000000e+00
8.115942e-01 6.896552e-02 0.000000e+00
8.623188e-01 6.896552e-02 0.000000e+00
9.130435e-01 6.896552e-02 0.000000e+00
9.637681e-01 6.896552e-02 0.000000e+00
1.014493e+00 6.896552e-02 0.000000e+00
1.065217e+00 6.896552e-02 0.000000e+00
1.115942e+00 6.896552e-02 0.000000e+00
1.166667e+00 6.896552e-02 0.000000e+00
1.217391e+00 6.896552e-02 0.000000e+00
1.268116e+00 6.896552e-02 0.000000e+00
1.318841e+00 6.896552e-02 0.000000e+00
1.369565e+00 6.896552e-02 0.000000e+00
1.420290e+00 6.896552e-02 0.000000e+00
1.471014e+00 6.896552e-02 0.000000e+00
1.521739e+00 6.896552e-02 0.000000e+00
1.572464e+00 6.896552e-02 0.000000e+00
1.623188e+00 6.896552e-02 0.000000e+00
1.673913e+00 6.896552e-02 0.000000e+00
1.724638e+00 6.896552e-02 0.000000e+00
1.775362e+00 6.896552e-02 0.000000e+00
1.826087e+00 6.896552e-02 0.000000e+00
1.876812e+00 6.896552e-02 0.000000e+00
1.927536e+00 6.896552e-02 0.000000e+00
1.978261e+00 6.896552e-02 0.000000e+00
2.028986e+00 6.896552e-02 0.000000e+00
2.079710e+00 6.896552e-02 0.000000e+00
2.130435e+00 6.896552e-02 0.000000e+00
2.181159e+00 6.896552e-02 0.000000e+00
2.231884e+00 6.896552e-02 0.000000e+00
2.282609e+00 6.896552e-02 0.000000e+00
2.333333e+00 6.896552e-02 0.000000e+00
2.384058e+00 6.896552e-02 0.000000e+00
2.434783e+00 6.896552e-02 0.000000e+00
2.485507e+00 6.896552e-02 0.000000e+00
2.536232e+00 6.896552e-02 0.000000e+00
2.586957e+00 6.896552e-02 0.000000e+00
2.637681e+00 6.896552e-02 0.000000e+00
2.688406e+00 6.896552e-02 0.000000e+00
2.739130e+00 6.896552e-02 0.000000e+00
2.789855e+00 6.896552e-02 0.000000e+00
2.840580e+00 6.896552e-02 0.000000e+00
2.891304e+00 6.896552e-02 0.000000e+00
2.942029e+00 6.896552e-02 0.000000e+00
2.992754e+00 6.896552e-02 0.000000e+00
3.043478e+00 6.896552e-02 0.000000e+00
3.094203e+00 6.896552e-02 0.000000e+00
3.144928e+00 6.896552e-02 0.000000e+00
3.195652e+00 6.896552e-02 0.000000e+00
3.246377e+00 6.896552e-02 0.000000e+00
3.297101e+00 6.896552e-02 0.000000e+00
3.347826e+00 6.896552e-02 0.000000e+00
3.398551e+00 6.896552e-02 0.000000e+00
3.449275e+00 6.896552e-02 0.000000e+00
3.500000e+00 6.896552e-02 0.000000e+00
0.000000e+00 1.034483e-01 0.000000e+00
5.072464e-02 1.034483e-01 0.000000e+00
1.014493e-01 1.034483e-01 0.000000e+00
1.521739e-01 1.034483e-01 0.000000e+00
2.028986e-01 1.034483e-01 0.000000e+00
2.536232e-01 1.034483e-01 0.000000e+00
3.043478e-01 1.034483e-01 0.000000e+00
3.550725e-01 1.034483e-01 0.000000e+00
4.057971e-01 1.034483e-01 0.000000e+00
4.565217e-01 1.034483e-01 0.000000e+00
5.072464e-01 1.034483e-01 0.000000e+00
5.579710e-01 1.034483e-01 0.000000e+00
6.086957e-01 1.034483e-01 0.000000e+00
6.594203e-01 1.034483e-01 0.000000e+00
7.101449e-01 1.034483e-01 0.000000e+00
7.608696e-01 1.034483e-01 0.000000e+00
8.115942e-01 1.034483e-01 0.000000e+00
8.623188e-01 1.034483e-01 0.000000e+00
9.130435e-01 1.034483e-01 0.000000e+00
9.637681e-01 1.034483e-01 0.000000e+00
1.014493e+00 1.034483e-01 0.000000e+00
1.065217e+00 1.034483e-01 0.000000e+00
1.115942e+00 1.034483e-01 0.000000e+00
1.166667e+00 1.034483e-01 0.000000e+00
1.217391e+00 1.034483e-01 0.000000e+00
1.268116e+00 1.034483e-01 0.000000e+00
1.318841e+00 1.034483e-01 0.000000e+00
1.369565e+00 1.034483e-01 0.000000e+00
1.420290e+00 1.034483e-01 0.000000e+00
1.471014e+00 1.034483e-01 0.000000e+00
1.521739e+00 1.034483e-01 0.000000e+00
1.572464e+00 1.034483e-01 0.000000e+00
1.623188e+00 1.034483e-01 0.000000e+00
1.673913e+00 1.034483e-01 0.000000e+00
1.724638e+00 1.034483e-01 0.000000e+00
1.775362e+00 1.034483e-01 0.000000e+00
1.826087e+00 1.034483e-01 0.000000e+00
1.876812e+00 1.034483e-01 0.000000e+00
1.927536e+00 1.034483e-01 0.000000e+00
1.978261e+00 1.034483e-01 0.000000e+00
2.028986e+00 1.034483e-01 0.000000e+00
2.079710e+00 1.034483e-01 0.000000e+00
2.130435e+00 1.034483e-01 0.000000e+00
[...]
POINT_DATA 2100
SCALARS RES_Cont double
LOOKUP_TABLE default
0.000000e+00
0.000000e+00
0.000000e+00
0.000000e+00
0.000000e+00
0.000000e+00
0.000000e+00
0.000000e+00
0.000000e+00
0.000000e+00
0.000000e+00
0.000000e+00
0.000000e+00
0.000000e+00
0.000000e+00
0.000000e+00
0.000000e+00
0.000000e+00
0.000000e+00
0.000000e+00
0.000000e+00
0.000000e+00
0.000000e+00
0.000000e+00
0.000000e+00
0.000000e+00
0.000000e+00
0.000000e+00
0.000000e+00
0.000000e+00
0.000000e+00
0.000000e+00
0.000000e+00
0.000000e+00
0.000000e+00
0.000000e+00
0.000000e+00
0.000000e+00
0.000000e+00
0.000000e+00
0.000000e+00
0.000000e+00
0.000000e+00
0.000000e+00
0.000000e+00
0.000000e+00
0.000000e+00
0.000000e+00
0.000000e+00
0.000000e+00
0.000000e+00
0.000000e+00
0.000000e+00
0.000000e+00
0.000000e+00
0.000000e+00
0.000000e+00
0.000000e+00
0.000000e+00
0.000000e+00
0.000000e+00
0.000000e+00
0.000000e+00
0.000000e+00
0.000000e+00
0.000000e+00
0.000000e+00
0.000000e+00
0.000000e+00
0.000000e+00
0.000000e+00
4.698404e-18
6.199697e-18
5.173018e-18
2.851350e-18
5.869046e-18
1.498559e-18
5.437824e-18
2.894623e-17
2.474023e-16
1.674299e-15
1.006754e-14
5.509762e-14
2.770080e-13
1.286490e-12
5.550223e-12
2.234543e-11
8.428270e-11
2.988057e-10
9.984358e-10
3.151078e-09
9.407233e-09
2.658808e-08
7.114924e-08
1.801443e-07
4.309815e-07
9.725664e-07
2.066408e-06
4.127944e-06
7.748003e-06
1.366838e-05
2.269121e-05
3.552162e-05
5.257192e-05
7.378128e-05
9.851415e-05
1.255839e-04
1.534075e-04
1.802507e-04
2.044909e-04
2.248299e-04
2.404129e-04
2.508501e-04
2.561632e-04
2.566905e-04
2.529816e-04
2.457009e-04
2.355518e-04
2.232213e-04
2.093452e-04
1.944878e-04
1.791318e-04
1.636774e-04
1.484435e-04
1.336737e-04
1.195415e-04
1.061574e-04
9.357521e-05
8.179865e-05
7.078788e-05
6.046610e-05
5.072670e-05
4.144085e-05
3.246572e-05
2.365318e-05
1.485881e-05
5.950904e-06
-3.180923e-06
-1.261786e-05
0.000000e+00
0.000000e+00
2.096617e-18
2.081499e-18
2.893700e-18
5.367266e-18
3.935137e-18
6.168566e-18
-1.691175e-18
3.250304e-17
2.869087e-16
1.898314e-15
1.146715e-14
6.319036e-14
3.195803e-13
1.493020e-12
6.476646e-12
2.620417e-11
9.925283e-11
3.530116e-10
1.181786e-09
3.730075e-09
1.111021e-08
3.123236e-08
8.280964e-08
2.068219e-07
4.858109e-07
1.071725e-06
2.218862e-06
4.312686e-06
7.880827e-06
1.357215e-05
2.209377e-05
3.410295e-05
5.006155e-05
7.007720e-05
9.377441e-05
1.202472e-04
1.481295e-04
1.757777e-04
2.015191e-04
2.238922e-04
2.418199e-04
2.546861e-04
2.623216e-04
2.649293e-04
2.629800e-04
2.571082e-04
2.480218e-04
2.364345e-04
2.230198e-04
2.083830e-04
1.930470e-04
1.774477e-04
1.619359e-04
1.467817e-04
1.321815e-04
1.182656e-04
1.051049e-04
9.271857e-05
8.108106e-05
7.012887e-05
5.976799e-05
4.988149e-05
4.033766e-05
3.099866e-05
2.172934e-05
1.240619e-05
2.925810e-06
-6.787229e-06
0.000000e+00
0.000000e+00
5.352912e-18
1.918040e-18
5.073073e-18
6.588508e-18
5.535330e-18
1.821834e-18
6.842555e-18
4.203659e-17
3.325981e-16
2.316188e-15
1.416874e-14
7.878386e-14
4.020075e-13
1.893508e-12
8.274862e-12
3.369383e-11
1.282682e-10
4.577251e-10
1.533871e-09
4.831410e-09
1.430440e-08
3.977520e-08
1.037179e-07
2.531841e-07
5.777583e-07
1.231910e-06
2.456628e-06
4.593107e-06
8.082595e-06
1.345014e-05
2.127148e-05
3.211869e-05
4.647603e-05
6.462265e-05
8.649854e-05
1.115956e-04
1.389259e-04
1.671023e-04
1.945208e-04
2.195972e-04
2.409880e-04
2.577414e-04
2.693569e-04
2.757609e-04
2.772274e-04
2.742745e-04
2.675629e-04
2.578096e-04
2.457235e-04
2.319628e-04
2.171099e-04
2.016602e-04
1.860193e-04
1.705067e-04
1.553626e-04
1.407552e-04
1.267894e-04
1.135152e-04
1.009350e-04
8.901171e-05
7.767621e-05
6.683522e-05
5.637934e-05
4.619145e-05
3.615535e-05
2.616436e-05
1.612953e-05
5.987235e-06
0.000000e+00
0.000000e+00
1.538739e-18
-1.590033e-19
-8.444514e-19
3.662899e-19
-1.092761e-18
5.011776e-18
2.908410e-18
5.221633e-17
4.328902e-16
2.987942e-15
1.843659e-14
1.035982e-13
5.337021e-13
2.535692e-12
1.116472e-11
4.573551e-11
1.748245e-10
6.248450e-10
2.090300e-09
6.545053e-09
1.916342e-08
5.237999e-08
1.334008e-07
3.160712e-07
6.963499e-07
1.427996e-06
2.733173e-06
4.903781e-06
8.293772e-06
1.330721e-05
2.038619e-05
2.999509e-05
4.258740e-05
5.853838e-05
7.803864e-05
1.009682e-04
1.267955e-04
1.545507e-04
1.829037e-04
2.103351e-04
2.353525e-04
2.566933e-04
2.734632e-04
2.851920e-04
2.918126e-04
2.935889e-04
2.910197e-04
2.847420e-04
2.754484e-04
2.638243e-04
2.505059e-04
2.360551e-04
2.209483e-04
2.055743e-04
1.902379e-04
1.751665e-04
1.605192e-04
1.463948e-04
1.328413e-04
1.198636e-04
1.074326e-04
9.549256e-05
8.396967e-05
7.278017e-05
6.183856e-05
5.106568e-05
4.039647e-05
2.978694e-05
0.000000e+00
0.000000e+00
6.838393e-18
3.379312e-18
5.482635e-18
-1.597105e-19
1.964889e-18
3.601318e-18
1.197891e-17
7.851039e-17
5.686478e-16
3.958257e-15
2.474299e-14
1.405117e-13
7.307728e-13
3.500652e-12
1.551599e-11
6.385183e-11
2.445428e-10
8.726883e-10
2.902208e-09
8.985755e-09
2.585837e-08
6.902826e-08
1.706768e-07
3.907065e-07
8.289262e-07
1.634368e-06
3.007511e-06
5.194001e-06
8.473287e-06
1.314901e-05
1.954661e-05
2.801687e-05
3.893464e-05
5.267547e-05
6.955535e-05
8.973207e-05
1.130895e-04
1.391445e-04
1.670206e-04
1.955115e-04
2.232266e-04
2.487804e-04
2.709732e-04
2.889219e-04
3.021208e-04
3.104348e-04
3.140435e-04
3.133595e-04
3.089419e-04
3.014185e-04
2.914251e-04
2.795623e-04
2.663688e-04
2.523074e-04
2.377614e-04
2.230362e-04
2.083651e-04
1.939171e-04
1.798055e-04
1.660968e-04
1.528193e-04
1.399719e-04
1.275320e-04
1.154642e-04
1.037277e-04
9.228379e-05
8.110306e-05
7.017126e-05
0.000000e+00
0.000000e+00
4.717546e-18
4.054397e-18
-5.200930e-19
-4.064253e-18
2.886442e-18
1.801340e-18
6.994282e-18
9.837413e-17
7.545142e-16
5.352238e-15
3.378993e-14
1.938792e-13
1.017289e-12
4.908572e-12
2.186653e-11
9.018858e-11
3.449376e-10
1.223701e-09
4.023451e-09
1.224098e-08
3.439874e-08
8.916703e-08
2.131628e-07
4.705626e-07
9.619413e-07
1.828670e-06
3.250063e-06
5.433512e-06
8.601605e-06
1.298252e-05
1.880900e-05
2.632710e-05
3.580922e-05
4.755977e-05
6.189814e-05
7.910727e-05
9.934793e-05
1.225565e-04
1.483595e-04
1.760393e-04
2.045752e-04
2.327536e-04
2.593215e-04
2.831430e-04
3.033228e-04
3.192761e-04
3.307422e-04
3.377525e-04
3.405699e-04
3.396186e-04
3.354152e-04
3.285112e-04
3.194494e-04
3.087339e-04
2.968125e-04
2.840686e-04
2.708193e-04
2.573183e-04
2.437621e-04
2.302972e-04
2.170278e-04
2.040252e-04
1.913352e-04
1.789868e-04
1.669991e-04
1.553887e-04
1.441747e-04
1.333847e-04
0.000000e+00
0.000000e+00
2.469825e-18
1.515335e-18
2.973934e-18
3.867695e-18
2.230970e-18
2.943156e-18
8.043874e-18
1.189546e-16
1.027481e-15
7.288606e-15
4.658234e-14
2.699015e-13
1.427645e-12
6.927701e-12
3.094478e-11
1.274898e-10
4.847415e-10
1.699920e-09
5.490629e-09
1.630849e-08
4.450147e-08
1.115789e-07
2.574852e-07
5.485696e-07
1.083680e-06
1.995446e-06
3.444980e-06
5.610703e-06
8.674647e-06
1.281129e-05
1.818395e-05
2.495156e-05
3.328491e-05
4.338599e-05
5.549945e-05
6.990323e-05
8.686845e-05
1.065884e-04
1.290903e-04
1.541542e-04
1.812697e-04
2.096481e-04
2.382943e-04
2.661211e-04
2.920767e-04
3.152584e-04
3.349908e-04
3.508597e-04
3.627083e-04
3.706031e-04
3.747838e-04
3.756094e-04
3.735074e-04
3.689312e-04
3.623281e-04
3.541173e-04
3.446763e-04
3.343344e-04
3.233715e-04
3.120205e-04
3.004726e-04
2.888836e-04
2.773813e-04
2.660723e-04
2.550493e-04
2.443966e-04
2.341946e-04
2.245237e-04
0.000000e+00
0.000000e+00
-1.416097e-18
5.664500e-18
5.631462e-18
5.130809e-18
2.410713e-19
-3.241771e-18
1.619157e-17
1.714713e-16
1.385141e-15
9.997128e-15
6.454053e-14
3.773219e-13
2.008929e-12
9.780741e-12
4.365682e-11
1.788293e-10
6.720546e-10
2.314568e-09
7.296437e-09
2.104209e-08
5.555189e-08
1.345449e-07
2.999950e-07
6.186325e-07
1.186159e-06
2.126884e-06
3.587503e-06
5.725517e-06
8.694815e-06
1.263252e-05
1.765183e-05
2.384477e-05
3.129616e-05
4.010652e-05
5.041696e-05
6.242598e-05
7.638695e-05
9.257835e-05
1.112460e-04
1.325272e-04
1.563746e-04
1.825036e-04
2.103801e-04
2.392549e-04
2.682394e-04
2.964021e-04
3.228673e-04
3.468942e-04
3.679293e-04
3.856261e-04
3.998387e-04
4.105963e-04
4.180664e-04
4.225158e-04
4.242730e-04
4.236967e-04
4.211507e-04
4.169857e-04
4.115283e-04
4.050750e-04
3.978905e-04
3.902094e-04
3.822401e-04
3.741691e-04
3.661663e-04
3.583885e-04
3.509830e-04
3.440886e-04
0.000000e+00
0.000000e+00
3.921465e-18
5.888766e-18
2.957186e-18
4.167021e-18
3.445834e-18
5.883512e-18
2.574295e-17
2.186428e-16
1.885407e-15
1.373568e-14
8.961661e-14
5.279346e-13
2.822388e-12
1.373846e-11
6.098418e-11
2.468944e-10
9.109919e-10
3.061255e-09
9.368325e-09
2.614278e-08
6.670231e-08
1.562274e-07
3.375587e-07
6.765958e-07
1.265392e-06
2.221044e-06
3.679191e-06
5.782306e-06
8.664658e-06
1.243748e-05
1.717883e-05
2.293234e-05
2.971748e-05
3.755087e-05
4.647481e-05
5.658582e-05
6.805408e-05
8.112491e-05
9.609614e-05
1.132711e-04
1.328937e-04
1.550790e-04
1.797561e-04
2.066379e-04
2.352268e-04
2.648560e-04
2.947551e-04
3.241287e-04
3.522296e-04
3.784189e-04
4.022032e-04
4.232513e-04
4.413908e-04
4.565915e-04
4.689404e-04
4.786134e-04
4.858481e-04
4.909191e-04
4.941184e-04
4.957404e-04
4.960726e-04
4.953897e-04
4.939512e-04
4.920013e-04
4.897700e-04
4.874739e-04
4.853162e-04
4.834868e-04
0.000000e+00
0.000000e+00
-7.838754e-19
3.178135e-18
-1.325322e-18
2.458750e-18
8.661777e-19
-1.977987e-19
3.652641e-17
3.096422e-16
2.564026e-15
1.890670e-14
1.244268e-13
7.367692e-13
3.940858e-12
1.908396e-11
8.372752e-11
3.327447e-10
1.197611e-09
3.906208e-09
1.156835e-08
3.121119e-08
7.706106e-08
1.750561e-07
3.680265e-07
7.203501e-07
1.320425e-06
2.279237e-06
3.723821e-06
5.785530e-06
8.584640e-06
1.221442e-05
1.672891e-05
2.213859e-05
2.841702e-05
3.551896e-05
4.340767e-05
5.208640e-05
6.162710e-05
7.218896e-05
8.402026e-05
9.743974e-05
1.127976e-04
1.304209e-04
1.505524e-04
1.732951e-04
1.985738e-04
2.261221e-04
2.554970e-04
2.861187e-04
3.173259e-04
3.484373e-04
3.788081e-04
4.078756e-04
4.351889e-04
4.604237e-04
4.833820e-04
5.039826e-04
5.222440e-04
5.382653e-04
5.522057e-04
5.642665e-04
5.746758e-04
5.836766e-04
5.915179e-04
5.984489e-04
6.047143e-04
6.105509e-04
6.161844e-04
6.218253e-04
0.000000e+00
0.000000e+00
-1.304681e-18
1.750176e-19
2.619915e-19
3.805045e-18
3.004925e-19
-3.754870e-18
3.868442e-17
4.126812e-16
3.495450e-15
2.599123e-14
1.722293e-13
1.021320e-12
5.437514e-12
2.602903e-11
1.120844e-10
4.343960e-10
1.517333e-09
4.789631e-09
1.371832e-08
3.583447e-08
8.587048e-08
1.899464e-07
3.902795e-07
7.493513e-07
1.352022e-06
2.303965e-06
3.725183e-06
5.738409e-06
8.453646e-06
1.195172e-05
1.627079e-05
2.139988e-05
2.728261e-05
3.383196e-05
4.095473e-05
4.858184e-05
5.669903e-05
6.537216e-05
7.476158e-05
8.512168e-05
9.678379e-05
1.101232e-04
1.255138e-04
1.432772e-04
1.636338e-04
1.866640e-04
2.122867e-04
2.402587e-04
2.701939e-04
3.015983e-04
3.339151e-04
3.665721e-04
3.990240e-04
4.307870e-04
4.614621e-04
4.907464e-04
5.184358e-04
5.444190e-04
5.686671e-04
5.912200e-04
6.121726e-04
6.316613e-04
6.498520e-04
6.669295e-04
6.830890e-04
6.985283e-04
7.134404e-04
7.280075e-04
0.000000e+00
0.000000e+00
5.989811e-18
2.190735e-18
2.139769e-18
4.403424e-18
-6.272334e-19
1.276489e-17
4.609970e-17
5.542172e-16
4.741281e-15
3.563129e-14
2.367397e-13
1.398351e-12
7.361190e-12
3.458318e-11
1.451991e-10
5.460523e-10
1.845971e-09
5.636744e-09
1.563721e-08
3.966427e-08
9.260622e-08
2.003256e-07
4.040116e-07
7.640057e-07
1.361690e-06
2.297882e-06
3.686506e-06
5.643269e-06
8.270426e-06
1.164026e-05
1.578095e-05
2.066876e-05
2.622948e-05
3.235036e-05
3.890152e-05
4.576353e-05
5.285700e-05
6.016901e-05
6.777225e-05
7.583339e-05
8.460892e-05
9.442826e-05
1.056654e-04
1.187024e-04
1.338882e-04
1.514992e-04
1.717064e-04
1.945530e-04
2.199469e-04
2.476682e-04
2.773884e-04
3.087010e-04
3.411553e-04
3.742913e-04
4.076700e-04
4.408982e-04
4.736444e-04
5.056482e-04
5.367218e-04
5.667473e-04
5.956689e-04
6.234841e-04
6.502328e-04
6.759867e-04
7.008392e-04
7.248955e-04
7.482638e-04
7.710473e-04
0.000000e+00
0.000000e+00
6.253642e-18
4.061175e-18
1.539933e-18
7.094508e-19
6.897556e-18
1.267847e-17
5.983950e-17
7.338542e-16
6.441288e-15
4.849745e-14
3.212895e-13
1.877336e-12
9.699575e-12
4.442394e-11
1.809618e-10
6.586409e-10
2.154184e-09
6.372883e-09
1.717385e-08
4.246140e-08
9.699429e-08
2.060432e-07
4.094549e-07
7.652160e-07
1.351192e-06
2.263552e-06
3.610697e-06
5.502348e-06
8.034766e-06
1.127449e-05
1.524402e-05
1.991313e-05
2.519870e-05
3.097426e-05
3.708858e-05
4.339044e-05
4.975591e-05
5.611373e-05
6.246523e-05
6.889599e-05
7.557789e-05
8.276119e-05
9.075752e-05
9.991556e-05
1.105917e-04
1.231187e-04
1.377759e-04
1.547640e-04
1.741871e-04
1.960445e-04
2.202325e-04
2.465552e-04
2.747432e-04
3.044764e-04
3.354088e-04
3.671922e-04
3.994964e-04
4.320244e-04
4.645229e-04
4.967873e-04
5.286615e-04
5.600353e-04
5.908374e-04
6.210285e-04
6.505919e-04
6.795250e-04
7.078313e-04
7.355126e-04
0.000000e+00
0.000000e+00
1.869602e-18
3.486804e-18
4.564227e-18
3.253970e-18
5.312698e-18
5.188961e-18
1.006213e-16
9.926671e-16
8.657276e-15
6.517752e-14
4.273736e-13
2.451301e-12
1.234571e-11
5.485209e-11
2.162358e-10
7.614672e-10
2.413227e-09
6.936746e-09
1.822677e-08
4.410651e-08
9.897657e-08
2.072501e-07
4.071670e-07
7.541426e-07
1.322410e-06
2.203544e-06
3.500731e-06
5.318394e-06
7.748045e-06
1.085251e-05
1.465174e-05
1.911357e-05
2.415237e-05
2.963663e-05
3.540505e-05
4.128874e-05
4.713600e-05
5.283599e-05
5.833789e-05
6.366336e-05
6.891099e-05
7.425278e-05
7.992332e-05
8.620313e-05
9.339785e-05
1.018153e-04
1.117422e-04
1.234231e-04
1.370431e-04
1.527153e-04
1.704755e-04
1.902824e-04
2.120247e-04
2.355329e-04
2.605942e-04
2.869693e-04
3.144084e-04
3.426660e-04
3.715120e-04
4.007397e-04
4.301701e-04
4.596520e-04
4.890603e-04
5.182909e-04
5.472552e-04
5.758737e-04
6.040698e-04
6.317647e-04
0.000000e+00
0.000000e+00
1.904859e-18
1.675988e-19
-4.137810e-19
5.319616e-18
5.472242e-18
1.081894e-17
1.237776e-16
1.325030e-15
1.150143e-14
8.580440e-14
5.524870e-13
3.089005e-12
1.509015e-11
6.487528e-11
2.474260e-10
8.442850e-10
2.600108e-09
7.288911e-09
1.875011e-08
4.458727e-08
9.865775e-08
2.042970e-07
3.979036e-07
7.321047e-07
1.277344e-06
2.120564e-06
3.359889e-06
5.094905e-06
7.413262e-06
1.037556e-05
1.400147e-05
1.826022e-05
2.306826e-05
2.829522e-05
3.377784e-05
3.933977e-05
4.481408e-05
5.006515e-05
5.500668e-05
5.961397e-05
6.392922e-05
6.806007e-05
7.217194e-05
7.647569e-05
8.121194e-05
8.663368e-05
9.298871e-05
1.005031e-04
1.093674e-04
1.197251e-04
1.316668e-04
1.452266e-04
1.603847e-04
1.770720e-04
1.951790e-04
2.145660e-04
2.350736e-04
2.565337e-04
2.787786e-04
3.016475e-04
3.249911e-04
3.486733e-04
3.725706e-04
3.965694e-04
4.205624e-04
4.444443e-04
4.681080e-04
4.914415e-04
0.000000e+00
0.000000e+00
5.664342e-18
5.504680e-18
5.847047e-18
-1.468604e-18
1.846967e-18
1.145825e-17
1.687943e-16
1.742623e-15
1.496014e-14
1.096992e-13
6.886787e-13
3.734180e-12
1.764783e-11
7.338798e-11
2.711822e-10
8.992127e-10
2.701057e-09
7.414621e-09
1.874845e-08
4.397392e-08
9.625375e-08
1.976600e-07
3.825426e-07
7.005332e-07
1.218112e-06
2.017500e-06
3.191820e-06
4.836109e-06
7.034785e-06
9.847310e-06
1.329473e-05
1.735011e-05
2.193531e-05
2.692553e-05
3.216129e-05
3.746607e-05
4.266675e-05
4.761379e-05
5.219813e-05
5.636306e-05
6.010982e-05
6.349720e-05
6.663573e-05
6.967774e-05
7.280475e-05
7.621352e-05
8.010212e-05
8.465696e-05
9.004175e-05
9.638893e-05
1.037939e-04
1.123123e-04
1.219605e-04
1.327179e-04
1.445328e-04
1.573282e-04
1.710096e-04
1.854719e-04
2.006056e-04
2.163024e-04
2.324578e-04
2.489731e-04
2.657545e-04
2.827120e-04
2.997560e-04
3.167954e-04
3.337344e-04
3.504712e-04
0.000000e+00
0.000000e+00
5.957899e-18
-1.974513e-18
1.267460e-18
4.776683e-18
1.639715e-18
2.385477e-17
2.138165e-16
2.225618e-15
1.891694e-14
1.351105e-13
8.224709e-13
4.313226e-12
1.971074e-11
7.939615e-11
2.850696e-10
9.220364e-10
2.712593e-09
7.321340e-09
1.826507e-08
4.239263e-08
9.204920e-08
1.878888e-07
3.620339e-07
6.609320e-07
1.146930e-06
1.897409e-06
3.000485e-06
4.546819e-06
6.618024e-06
9.273196e-06
1.253600e-05
1.638509e-05
2.075018e-05
2.551528e-05
3.052884e-05
3.561934e-05
4.061389e-05
4.535673e-05
4.972521e-05
5.364115e-05
5.707666e-05
6.005452e-05
6.264354e-05
6.495037e-05
6.710878e-05
6.926800e-05
7.158114e-05
7.419455e-05
7.723898e-05
8.082283e-05
8.502770e-05
8.990638e-05
9.548302e-05
1.017552e-04
1.086977e-04
1.162669e-04
1.244065e-04
1.330518e-04
1.421350e-04
1.515880e-04
1.613453e-04
1.713443e-04
1.815254e-04
1.918305e-04
2.022010e-04
2.125758e-04
2.228896e-04
2.330721e-04
0.000000e+00
0.000000e+00
2.565292e-18
3.045280e-18
5.705039e-18
6.113205e-18
2.207126e-18
1.892448e-17
2.757092e-16
2.769478e-15
2.297593e-14
1.592073e-13
9.370113e-13
4.749223e-12
2.101459e-11
8.223398e-11
2.880084e-10
9.125188e-10
2.640255e-09
7.033058e-09
1.736841e-08
4.000206e-08
8.636457e-08
1.755677e-07
3.373583e-07
6.148386e-07
1.066064e-06
1.763456e-06
2.790070e-06
4.232270e-06
6.169131e-06
8.659917e-06
1.173179e-05
1.537027e-05
1.951477e-05
2.406047e-05
2.886679e-05
3.377100e-05
3.860497e-05
4.321219e-05
4.746275e-05
5.126434e-05
5.456826e-05
5.737045e-05
5.970797e-05
6.165211e-05
6.329922e-05
6.476074e-05
6.615323e-05
6.758944e-05
6.917097e-05
7.098281e-05
7.308993e-05
7.553585e-05
7.834304e-05
8.151474e-05
8.503796e-05
8.888713e-05
9.302808e-05
9.742180e-05
1.020277e-04
1.068062e-04
1.117202e-04
1.167355e-04
1.218208e-04
1.269464e-04
1.320827e-04
1.371987e-04
1.422610e-04
1.472327e-04
0.000000e+00
0.000000e+00
6.175250e-18
5.007900e-18
-1.745810e-18
4.656840e-19
5.389098e-18
2.490789e-17
3.341758e-16
3.320969e-15
2.667867e-14
1.786063e-13
1.015279e-12
4.980163e-12
2.140239e-11
8.169364e-11
2.803220e-10
8.737492e-10
2.495938e-09
6.583800e-09
1.614008e-08
3.697496e-08
7.953190e-08
1.612865e-07
3.094960e-07
5.637884e-07
9.777957e-07
1.618857e-06
2.564896e-06
3.897976e-06
5.694768e-06
8.015027e-06
1.088999e-05
1.431300e-05
1.823444e-05
2.256249e-05
2.716979e-05
3.190521e-05
3.660870e-05
4.112682e-05
4.532680e-05
4.910713e-05
5.240382e-05
5.519208e-05
5.748388e-05
5.932226e-05
6.077366e-05
6.191926e-05
6.284642e-05
6.364106e-05
6.438137e-05
6.513336e-05
6.594805e-05
6.686051e-05
6.789033e-05
6.904328e-05
7.031379e-05
7.168794e-05
7.314658e-05
7.466821e-05
7.623143e-05
7.781676e-05
7.940771e-05
8.099110e-05
8.255678e-05
8.409672e-05
8.560396e-05
8.707138e-05
8.849079e-05
8.985229e-05
0.000000e+00
0.000000e+00
5.678821e-18
5.560967e-18
4.848686e-18
2.228272e-18
3.488313e-18
3.877385e-17
3.991782e-16
3.787111e-15
2.940629e-14
1.900378e-13
1.044710e-12
4.975544e-12
2.085661e-11
7.801357e-11
2.634353e-10
8.109910e-10
2.295018e-09
6.012011e-09
1.466567e-08
3.348513e-08
7.187804e-08
1.456207e-07
2.794028e-07
5.092870e-07
8.843798e-07
1.466835e-06
2.329345e-06
3.549616e-06
5.201922e-06
7.346646e-06
1.001944e-05
1.322203e-05
1.691675e-05
2.102605e-05
2.543757e-05
3.001385e-05
3.460541e-05
3.906469e-05
4.325910e-05
4.708124e-05
5.045540e-05
5.333992e-05
5.572580e-05
5.763236e-05
5.910084e-05
6.018718e-05
6.095469e-05
6.146747e-05
6.178514e-05
6.195888e-05
6.202929e-05
6.202542e-05
6.196532e-05
6.185735e-05
6.170223e-05
6.149543e-05
6.122957e-05
6.089658e-05
6.048958e-05
6.000416e-05
5.943909e-05
5.879654e-05
5.808175e-05
5.730243e-05
5.646779e-05
5.558774e-05
5.467201e-05
5.372966e-05
0.000000e+00
0.000000e+00
6.547324e-18
5.283329e-18
-2.430404e-19
4.379848e-18
5.120624e-18
4.158706e-17
4.397704e-16
4.096906e-15
3.064866e-14
1.913355e-13
1.020931e-12
4.742547e-12
1.948591e-11
7.175479e-11
2.394218e-10
7.305224e-10
2.053984e-09
5.356486e-09
1.302863e-08
2.969900e-08
6.371390e-08
1.291182e-07
2.479942e-07
4.527885e-07
7.880174e-07
1.310565e-06
2.087790e-06
3.192924e-06
4.697744e-06
6.663218e-06
9.129484e-06
1.210698e-05
1.557054e-05
1.945783e-05
2.367274e-05
2.809316e-05
3.258206e-05
3.699988e-05
4.121646e-05
4.512083e-05
4.862790e-05
5.168153e-05
5.425426e-05
5.634429e-05
5.797051e-05
5.916660e-05
5.997497e-05
6.044117e-05
6.060941e-05
6.051915e-05
6.020314e-05
5.968661e-05
5.898747e-05
5.811737e-05
5.708317e-05
5.588874e-05
5.453674e-05
5.303021e-05
5.137387e-05
4.957503e-05
4.764411e-05