# vtk DataFile Version 3.0
Resultado Projeto 3
ASCII
DATASET STRUCTURED_GRID
DIMENSIONS 140 60 1 
POINTS 8400 double
0.000000e+00 0.000000e+00 0.000000e+00
2.517986e-02 0.000000e+00 0.000000e+00
5.035971e-02 0.000000e+00 0.000000e+00
7.553957e-02 0.000000e+00 0.000000e+00
1.007194e-01 0.000000e+00 0.000000e+00
1.258993e-01 0.000000e+00 0.000000e+00
1.510791e-01 0.000000e+00 0.000000e+00
1.762590e-01 0.000000e+00 0.000000e+00
2.014388e-01 0.000000e+00 0.000000e+00
2.266187e-01 0.000000e+00 0.000000e+00
2.517986e-01 0.000000e+00 0.000000e+00
2.769784e-01 0.000000e+00 0.000000e+00
3.021583e-01 0.000000e+00 0.000000e+00
3.273381e-01 0.000000e+00 0.000000e+00
3.525180e-01 0.000000e+00 0.000000e+00
3.776978e-01 0.000000e+00 0.000000e+00
4.028777e-01 0.000000e+00 0.000000e+00
4.280576e-01 0.000000e+00 0.000000e+00
4.532374e-01 0.000000e+00 0.000000e+00
4.784173e-01 0.000000e+00 0.000000e+00
5.035971e-01 0.000000e+00 0.000000e+00
5.287770e-01 0.000000e+00 0.000000e+00
5.539568e-01 0.000000e+00 0.000000e+00
5.791367e-01 0.000000e+00 0.000000e+00
6.043165e-01 0.000000e+00 0.000000e+00
6.294964e-01 0.000000e+00 0.000000e+00
6.546763e-01 0.000000e+00 0.000000e+00
6.798561e-01 0.000000e+00 0.000000e+00
7.050360e-01 0.000000e+00 0.000000e+00
7.302158e-01 0.000000e+00 0.000000e+00
7.553957e-01 0.000000e+00 0.000000e+00
7.805755e-01 0.000000e+00 0.000000e+00
8.057554e-01 0.000000e+00 0.000000e+00
8.309353e-01 0.000000e+00 0.000000e+00
8.561151e-01 0.000000e+00 0.000000e+00
8.812950e-01 0.000000e+00 0.000000e+00
9.064748e-01 0.000000e+00 0.000000e+00
9.316547e-01 0.000000e+00 0.000000e+00
9.568345e-01 0.000000e+00 0.000000e+00
9.820144e-01 0.000000e+00 0.000000e+00
1.007194e+00 0.000000e+00 0.000000e+00
1.032374e+00 0.000000e+00 0.000000e+00
1.057554e+00 0.000000e+00 0.000000e+00
1.082734e+00 0.000000e+00 0.000000e+00
1.107914e+00 0.000000e+00 0.000000e+00
1.133094e+00 0.000000e+00 0.000000e+00
1.158273e+00 0.000000e+00 0.000000e+00
1.183453e+00 0.000000e+00 0.000000e+00
1.208633e+00 0.000000e+00 0.000000e+00
1.233813e+00 0.000000e+00 0.000000e+00
1.258993e+00 0.000000e+00 0.000000e+00
1.284173e+00 0.000000e+00 0.000000e+00
1.309353e+00 0.000000e+00 0.000000e+00
1.334532e+00 0.000000e+00 0.000000e+00
1.359712e+00 0.000000e+00 0.000000e+00
1.384892e+00 0.000000e+00 0.000000e+00
1.410072e+00 0.000000e+00 0.000000e+00
1.435252e+00 0.000000e+00 0.000000e+00
1.460432e+00 0.000000e+00 0.000000e+00
1.485612e+00 0.000000e+00 0.000000e+00
1.510791e+00 0.000000e+00 0.000000e+00
1.535971e+00 0.000000e+00 0.000000e+00
1.561151e+00 0.000000e+00 0.000000e+00
1.586331e+00 0.000000e+00 0.000000e+00
1.611511e+00 0.000000e+00 0.000000e+00
1.636691e+00 0.000000e+00 0.000000e+00
1.661871e+00 0.000000e+00 0.000000e+00
1.687050e+00 0.000000e+00 0.000000e+00
1.712230e+00 0.000000e+00 0.000000e+00
1.737410e+00 0.000000e+00 0.000000e+00
1.762590e+00 0.000000e+00 0.000000e+00
1.787770e+00 0.000000e+00 0.000000e+00
1.812950e+00 0.000000e+00 0.000000e+00
1.838129e+00 0.000000e+00 0.000000e+00
1.863309e+00 0.000000e+00 0.000000e+00
1.888489e+00 0.000000e+00 0.000000e+00
1.913669e+00 0.000000e+00 0.000000e+00
1.938849e+00 0.000000e+00 0.000000e+00
1.964029e+00 0.000000e+00 0.000000e+00
1.989209e+00 0.000000e+00 0.000000e+00
2.014388e+00 0.000000e+00 0.000000e+00
2.039568e+00 0.000000e+00 0.000000e+00
2.064748e+00 0.000000e+00 0.000000e+00
2.089928e+00 0.000000e+00 0.000000e+00
2.115108e+00 0.000000e+00 0.000000e+00
2.140288e+00 0.000000e+00 0.000000e+00
2.165468e+00 0.000000e+00 0.000000e+00
2.190647e+00 0.000000e+00 0.000000e+00
2.215827e+00 0.000000e+00 0.000000e+00
2.241007e+00 0.000000e+00 0.000000e+00
2.266187e+00 0.000000e+00 0.000000e+00
2.291367e+00 0.000000e+00 0.000000e+00
2.316547e+00 0.000000e+00 0.000000e+00
2.341727e+00 0.000000e+00 0.000000e+00
2.366906e+00 0.000000e+00 0.000000e+00
2.392086e+00 0.000000e+00 0.000000e+00
2.417266e+00 0.000000e+00 0.000000e+00
2.442446e+00 0.000000e+00 0.000000e+00
2.467626e+00 0.000000e+00 0.000000e+00
2.492806e+00 0.000000e+00 0.000000e+00
2.517986e+00 0.000000e+00 0.000000e+00
2.543165e+00 0.000000e+00 0.000000e+00
2.568345e+00 0.000000e+00 0.000000e+00
2.593525e+00 0.000000e+00 0.000000e+00
2.618705e+00 0.000000e+00 0.000000e+00
2.643885e+00 0.000000e+00 0.000000e+00
2.669065e+00 0.000000e+00 0.000000e+00
2.694245e+00 0.000000e+00 0.000000e+00
2.719424e+00 0.000000e+00 0.000000e+00
2.744604e+00 0.000000e+00 0.000000e+00
2.769784e+00 0.000000e+00 0.000000e+00
2.794964e+00 0.000000e+00 0.000000e+00
2.820144e+00 0.000000e+00 0.000000e+00
2.845324e+00 0.000000e+00 0.000000e+00
2.870504e+00 0.000000e+00 0.000000e+00
2.895683e+00 0.000000e+00 0.000000e+00
2.920863e+00 0.000000e+00 0.000000e+00
2.946043e+00 0.000000e+00 0.000000e+00
2.971223e+00 0.000000e+00 0.000000e+00
2.996403e+00 0.000000e+00 0.000000e+00
3.021583e+00 0.000000e+00 0.000000e+00
3.046763e+00 0.000000e+00 0.000000e+00
3.071942e+00 0.000000e+00 0.000000e+00
3.097122e+00 0.000000e+00 0.000000e+00
3.122302e+00 0.000000e+00 0.000000e+00
3.147482e+00 0.000000e+00 0.000000e+00
3.172662e+00 0.000000e+00 0.000000e+00
3.197842e+00 0.000000e+00 0.000000e+00
3.223022e+00 0.000000e+00 0.000000e+00
3.248201e+00 0.000000e+00 0.000000e+00
3.273381e+00 0.000000e+00 0.000000e+00
3.298561e+00 0.000000e+00 0.000000e+00
3.323741e+00 0.000000e+00 0.000000e+00
3.348921e+00 0.000000e+00 0.000000e+00
3.374101e+00 0.000000e+00 0.000000e+00
3.399281e+00 0.000000e+00 0.000000e+00
3.424460e+00 0.000000e+00 0.000000e+00
3.449640e+00 0.000000e+00 0.000000e+00
3.474820e+00 0.000000e+00 0.000000e+00
3.500000e+00 0.000000e+00 0.000000e+00
0.000000e+00 1.694915e-02 0.000000e+00
2.517986e-02 1.694915e-02 0.000000e+00
5.035971e-02 1.694915e-02 0.000000e+00
7.553957e-02 1.694915e-02 0.000000e+00
1.007194e-01 1.694915e-02 0.000000e+00
1.258993e-01 1.694915e-02 0.000000e+00
1.510791e-01 1.694915e-02 0.000000e+00
1.762590e-01 1.694915e-02 0.000000e+00
2.014388e-01 1.694915e-02 0.000000e+00
2.266187e-01 1.694915e-02 0.000000e+00
2.517986e-01 1.694915e-02 0.000000e+00
2.769784e-01 1.694915e-02 0.000000e+00
3.021583e-01 1.694915e-02 0.000000e+00
3.273381e-01 1.694915e-02 0.000000e+00
3.525180e-01 1.694915e-02 0.000000e+00
3.776978e-01 1.694915e-02 0.000000e+00
4.028777e-01 1.694915e-02 0.000000e+00
4.280576e-01 1.694915e-02 0.000000e+00
4.532374e-01 1.694915e-02 0.000000e+00
4.784173e-01 1.694915e-02 0.000000e+00
5.035971e-01 1.694915e-02 0.000000e+00
5.287770e-01 1.694915e-02 0.000000e+00
5.539568e-01 1.694915e-02 0.000000e+00
5.791367e-01 1.694915e-02 0.000000e+00
6.043165e-01 1.694915e-02 0.000000e+00
6.294964e-01 1.694915e-02 0.000000e+00
6.546763e-01 1.694915e-02 0.000000e+00
6.798561e-01 1.694915e-02 0.000000e+00
7.050360e-01 1.694915e-02 0.000000e+00
7.302158e-01 1.694915e-02 0.000000e+00
7.553957e-01 1.694915e-02 0.000000e+00
7.805755e-01 1.694915e-02 0.000000e+00
8.057554e-01 1.694915e-02 0.000000e+00
8.309353e-01 1.694915e-02 0.000000e+00
8.561151e-01 1.694915e-02 0.000000e+00
8.812950e-01 1.694915e-02 0.000000e+00
9.064748e-01 1.694915e-02 0.000000e+00
9.316547e-01 1.694915e-02 0.000000e+00
9.568345e-01 1.694915e-02 0.000000e+00
9.820144e-01 1.694915e-02 0.000000e+00
1.007194e+00 1.694915e-02 0.000000e+00
1.032374e+00 1.694915e-02 0.000000e+00
1.057554e+00 1.694915e-02 0.000000e+00
1.082734e+00 1.694915e-02 0.000000e+00
1.107914e+00 1.694915e-02 0.000000e+00
1.133094e+00 1.694915e-02 0.000000e+00
1.158273e+00 1.694915e-02 0.000000e+00
1.183453e+00 1.694915e-02 0.000000e+00
1.208633e+00 1.694915e-02 0.000000e+00
1.233813e+00 1.694915e-02 0.000000e+00
1.258993e+00 1.694915e-02 0.000000e+00
1.284173e+00 1.694915e-02 0.000000e+00
1.309353e+00 1.694915e-02 0.000000e+00
1.334532e+00 1.694915e-02 0.000000e+00
1.359712e+00 1.694915e-02 0.000000e+00
1.384892e+00 1.694915e-02 0.000000e+00
1.410072e+00 1.694915e-02 0.000000e+00
1.435252e+00 1.694915e-02 0.000000e+00
1.460432e+00 1.694915e-02 0.000000e+00
1.485612e+00 1.694915e-02 0.000000e+00
1.510791e+00 1.694915e-02 0.000000e+00
1.535971e+00 1.694915e-02 0.000000e+00
1.561151e+00 1.694915e-02 0.000000e+00
1.586331e+00 1.694915e-02 0.000000e+00
1.611511e+00 1.694915e-02 0.000000e+00
1.636691e+00 1.694915e-02 0.000000e+00
1.661871e+00 1.694915e-02 0.000000e+00
1.687050e+00 1.694915e-02 0.000000e+00
1.712230e+00 1.694915e-02 0.000000e+00
1.737410e+00 1.694915e-02 0.000000e+00
1.762590e+00 1.694915e-02 0.000000e+00
1.787770e+00 1.694915e-02 0.000000e+00
1.812950e+00 1.694915e-02 0.000000e+00
1.838129e+00 1.694915e-02 0.000000e+00
1.863309e+00 1.694915e-02 0.000000e+00
1.888489e+00 1.694915e-02 0.000000e+00
1.913669e+00 1.694915e-02 0.000000e+00
1.938849e+00 1.694915e-02 0.000000e+00
1.964029e+00 1.694915e-02 0.000000e+00
1.989209e+00 1.694915e-02 0.000000e+00
2.014388e+00 1.694915e-02 0.000000e+00
2.039568e+00 1.694915e-02 0.000000e+00
2.064748e+00 1.694915e-02 0.000000e+00
2.089928e+00 1.694915e-02 0.000000e+00
2.115108e+00 1.694915e-02 0.000000e+00
2.140288e+00 1.694915e-02 0.000000e+00
2.165468e+00 1.694915e-02 0.000000e+00
2.190647e+00 1.694915e-02 0.000000e+00
2.215827e+00 1.694915e-02 0.000000e+00
2.241007e+00 1.694915e-02 0.000000e+00
2.266187e+00 1.694915e-02 0.000000e+00
2.291367e+00 1.694915e-02 0.000000e+00
2.316547e+00 1.694915e-02 0.000000e+00
2.341727e+00 1.694915e-02 0.000000e+00
2.366906e+00 1.694915e-02 0.000000e+00
2.392086e+00 1.694915e-02 0.000000e+00
2.417266e+00 1.694915e-02 0.000000e+00
2.442446e+00 1.694915e-02 0.000000e+00
2.467626e+00 1.694915e-02 0.000000e+00
2.492806e+00 1.694915e-02 0.000000e+00
2.517986e+00 1.694915e-02 0.000000e+00
2.543165e+00 1.694915e-02 0.000000e+00
2.568345e+00 1.694915e-02 0.000000e+00
2.593525e+00 1.694915e-02 0.000000e+00
2.618705e+00 1.694915e-02 0.000000e+00
2.643885e+00 1.694915e-02 0.000000e+00
2.669065e+00 1.694915e-02 0.000000e+00
2.694245e+00 1.694915e-02 0.000000e+00
2.719424e+00 1.694915e-02 0.000000e+00
2.744604e+00 1.694915e-02 0.000000e+00
2.769784e+00 1.694915e-02 0.000000e+00
2.794964e+00 1.694915e-02 0.000000e+00
2.820144e+00 1.694915e-02 0.000000e+00
[...]
POINT_DATA 8400
SCALARS RES_Cont double
LOOKUP_TABLE default
0.000000e+00
0.000000e+00
0.000000e+00
0.000000e+00
0.000000e+00
0.000000e+00
0.000000e+00
0.000000e+00
0.000000e+00
0.000000e+00
0.000000e+00
0.000000e+00
0.000000e+00
0.000000e+00
0.000000e+00
0.000000e+00
0.000000e+00
0.000000e+00
0.000000e+00
0.000000e+00
0.000000e+00
0.000000e+00
0.000000e+00
0.000000e+00
0.000000e+00
0.000000e+00
0.000000e+00
0.000000e+00
0.000000e+00
0.000000e+00
0.000000e+00
0.000000e+00
0.000000e+00
0.000000e+00
0.000000e+00
0.000000e+00
0.000000e+00
0.000000e+00
0.000000e+00
0.000000e+00
0.000000e+00
0.000000e+00
0.000000e+00
0.000000e+00
0.000000e+00
0.000000e+00
0.000000e+00
0.000000e+00
0.000000e+00
0.000000e+00
0.000000e+00
0.000000e+00
0.000000e+00
0.000000e+00
0.000000e+00
0.000000e+00
0.000000e+00
0.000000e+00
0.000000e+00
0.000000e+00
0.000000e+00
0.000000e+00
0.000000e+00
0.000000e+00
0.000000e+00
0.000000e+00
0.000000e+00
0.000000e+00
0.000000e+00
0.000000e+00
0.000000e+00
0.000000e+00
0.000000e+00
0.000000e+00
0.000000e+00
0.000000e+00
0.000000e+00
0.000000e+00
0.000000e+00
0.000000e+00
0.000000e+00
0.000000e+00
0.000000e+00
0.000000e+00
0.000000e+00
0.000000e+00
0.000000e+00
0.000000e+00
0.000000e+00
0.000000e+00
0.000000e+00
0.000000e+00
0.000000e+00
0.000000e+00
0.000000e+00
0.000000e+00
0.000000e+00
0.000000e+00
0.000000e+00
0.000000e+00
0.000000e+00
0.000000e+00
0.000000e+00
0.000000e+00
0.000000e+00
0.000000e+00
0.000000e+00
0.000000e+00
0.000000e+00
0.000000e+00
0.000000e+00
0.000000e+00
0.000000e+00
0.000000e+00
0.000000e+00
0.000000e+00
0.000000e+00
0.000000e+00
0.000000e+00
0.000000e+00
0.000000e+00
0.000000e+00
0.000000e+00
0.000000e+00
0.000000e+00
0.000000e+00
0.000000e+00
0.000000e+00
0.000000e+00
0.000000e+00
0.000000e+00
0.000000e+00
0.000000e+00
0.000000e+00
0.000000e+00
0.000000e+00
0.000000e+00
0.000000e+00
0.000000e+00
0.000000e+00
0.000000e+00
-0.000000e+00
-0.000000e+00
-0.000000e+00
-0.000000e+00
-0.000000e+00
-0.000000e+00
3.951571e-19
-2.766100e-18
2.082467e-18
2.280046e-18
-4.179766e-18
-8.663792e-19
2.416391e-18
2.578590e-19
1.793992e-18
-1.484016e-18
-2.249020e-18
-5.253776e-19
1.909380e-18
-1.665693e-18
4.132212e-18
-7.431019e-19
1.258638e-18
-3.120889e-18
3.624877e-19
4.338613e-18
-2.664903e-18
-8.283298e-19
1.550128e-18
1.664343e-18
-2.373046e-18
-1.608582e-18
3.644665e-18
4.348978e-18
6.850600e-20
-7.551075e-19
2.530652e-18
4.542930e-18
9.264816e-19
4.364301e-18
1.419136e-18
-2.115780e-18
2.250419e-18
1.176758e-18
5.194531e-18
-6.245798e-18
-4.262103e-18
-1.995954e-18
9.179067e-20
4.016944e-18
3.253558e-19
8.443168e-19
-6.551128e-19
5.138360e-20
-3.376021e-18
-5.944024e-20
3.780601e-18
5.274742e-18
1.452422e-18
-1.179801e-17
-1.999052e-17
-9.408611e-18
7.734606e-18
1.906861e-17
-4.817901e-19
-6.087500e-18
2.193354e-17
3.867664e-16
1.913036e-15
7.022490e-15
2.271226e-14
6.884556e-14
2.014158e-13
5.767770e-13
1.620310e-12
4.456730e-12
1.197006e-11
3.131138e-11
7.959538e-11
1.963414e-10
4.696258e-10
1.088996e-09
2.448435e-09
5.338790e-09
1.129260e-08
2.317524e-08
4.615181e-08
8.919006e-08
1.672677e-07
3.044096e-07
5.375443e-07
9.209086e-07
1.530310e-06
2.466025e-06
3.852575e-06
5.833328e-06
8.558080e-06
1.216290e-05
1.674346e-05
2.232565e-05
2.883967e-05
3.610465e-05
4.382963e-05
5.163329e-05
5.907983e-05
6.572439e-05
7.115923e-05
7.505279e-05
7.717688e-05
7.742123e-05
7.579759e-05
7.243744e-05
6.758628e-05
6.159553e-05
5.491027e-05
4.804824e-05
4.156484e-05
3.600072e-05
3.181333e-05
2.930205e-05
2.854352e-05
2.935776e-05
3.132173e-05
3.383533e-05
3.622915e-05
3.788963e-05
3.837188e-05
3.747452e-05
3.526182e-05
3.203198e-05
2.824122e-05
2.440166e-05
2.097435e-05
1.827976e-05
1.644433e-05
1.539392e-05
1.489381e-05
1.462292e-05
0.000000e+00
0.000000e+00
-0.000000e+00
-0.000000e+00
-0.000000e+00
-0.000000e+00
-0.000000e+00
3.951571e-19
-5.927357e-19
1.778207e-18
7.903142e-19
-3.769777e-18
-2.280046e-18
5.684329e-18
1.580628e-18
-2.339373e-18
-1.059195e-18
-1.647168e-18
3.473138e-18
-1.541714e-18
-2.948863e-18
1.142524e-19
-1.188830e-18
-2.499037e-19
-7.159215e-19
1.050624e-18
-3.108179e-19
-1.920235e-18
-1.285825e-18
3.761654e-19
1.157509e-18
-3.355834e-18
-1.155415e-18
2.455278e-19
5.316550e-19
2.620430e-18
1.400238e-18
-2.107697e-18
-2.740523e-18
-3.314508e-18
1.882661e-18
4.323399e-18
3.792345e-18
8.413603e-19
4.134117e-18
9.064197e-19
-4.671507e-18
3.935374e-18
3.302060e-18
4.383605e-18
-9.912929e-19
-1.563572e-18
-6.394117e-18
-4.867918e-18
-3.287883e-18
-4.611292e-18
1.737159e-18
-1.066546e-17
-1.007339e-17
2.109645e-18
1.995972e-18
-3.530420e-18
-4.958341e-19
-5.973759e-18
4.286865e-19
2.194646e-18
1.399942e-17
1.674999e-17
1.337058e-16
5.566972e-16
1.839907e-15
5.742416e-15
1.815632e-14
5.809979e-14
1.806328e-13
5.367834e-13
1.536156e-12
4.265669e-12
1.151921e-11
3.023801e-11
7.707660e-11
1.906102e-10
4.570820e-10
1.062616e-09
2.394962e-09
5.233838e-09
1.109232e-08
2.280271e-08
4.547602e-08
8.799527e-08
1.652120e-07
3.009723e-07
5.319669e-07
9.121345e-07
1.516938e-06
2.446297e-06
3.824419e-06
5.794482e-06
8.506312e-06
1.209632e-05
1.666087e-05
2.222693e-05
2.872604e-05
3.597879e-05
4.369564e-05
5.149643e-05
5.894616e-05
6.560032e-05
7.105108e-05
7.496643e-05
7.711742e-05
7.739278e-05
7.580313e-05
7.247865e-05
6.766338e-05
6.170709e-05
5.505293e-05
4.821641e-05
4.175041e-05
3.619294e-05
3.199914e-05
2.946699e-05
2.867346e-05
2.944121e-05
3.135235e-05
3.381403e-05
3.616502e-05
3.779931e-05
3.827733e-05
3.739958e-05
3.522829e-05
3.205598e-05
2.833067e-05
2.455533e-05
2.118269e-05
1.852730e-05
1.671313e-05
1.566720e-05
1.515893e-05
1.487313e-05
0.000000e+00
0.000000e+00
-0.000000e+00
-0.000000e+00
-0.000000e+00
-0.000000e+00
3.951571e-19
-7.903142e-19
3.860674e-18
3.465517e-18
-2.281951e-19
-2.447008e-18
1.018509e-18
1.808823e-18
-3.433948e-18
-1.516538e-18
-5.389186e-18
-2.049945e-18
1.842022e-18
-2.068195e-18
-2.390579e-18
2.077771e-18
1.190351e-18
1.120886e-18
2.665746e-18
3.300521e-18
-3.529972e-19
-4.207158e-18
-5.732115e-18
5.118775e-18
2.861876e-18
2.774320e-18
4.709713e-18
5.189744e-18
3.222058e-18
-2.610998e-18
-2.159605e-18
-9.355178e-19
6.230882e-18
3.837747e-18
1.958387e-18
-1.949945e-18
1.229769e-18
-1.031116e-18
1.745360e-18
2.595703e-18
1.568619e-18
7.008641e-19
-1.018825e-18
6.746237e-18
2.143228e-18
-1.149059e-18
3.864743e-18
-3.300047e-18
-1.021379e-19
-1.524501e-18
3.211328e-18
-5.644444e-18
1.960661e-18
-2.063046e-18
-7.771496e-19
3.544741e-18
3.758987e-18
1.331280e-17
-6.259522e-18
-1.217443e-17
1.671208e-17
7.827468e-17
2.181727e-16
6.234637e-16
1.779067e-15
4.883345e-15
1.373143e-14
4.157388e-14
1.353750e-13
4.424216e-13
1.363065e-12
3.932021e-12
1.079539e-11
2.854148e-11
7.303933e-11
1.812395e-10
4.362298e-10
1.018258e-09
2.304439e-09
5.055668e-09
1.075246e-08
2.217235e-08
4.433731e-08
8.599157e-08
1.617803e-07
2.952590e-07
5.227317e-07
8.976578e-07
1.494953e-06
2.413977e-06
3.778466e-06
5.731341e-06
8.422540e-06
1.198908e-05
1.652853e-05
2.206958e-05
2.854594e-05
3.578050e-05
4.348588e-05
5.128367e-05
5.873994e-05
6.541055e-05
7.088738e-05
7.483750e-05
7.703066e-05
7.735395e-05
7.581614e-05
7.254542e-05
6.778360e-05
6.187796e-05
5.526879e-05
4.846819e-05
4.202524e-05
3.647403e-05
3.226634e-05
2.969847e-05
2.884846e-05
2.954377e-05
3.137516e-05
3.376135e-05
3.605371e-05
3.765733e-05
3.813991e-05
3.730361e-05
3.520632e-05
3.213089e-05
2.851226e-05
2.483933e-05
2.155257e-05
1.895834e-05
1.717783e-05
1.614082e-05
1.562383e-05
1.532085e-05
0.000000e+00
0.000000e+00
-0.000000e+00
-0.000000e+00
-0.000000e+00
-0.000000e+00
-1.185471e-18
-1.778207e-18
5.018387e-19
-7.903142e-19
-1.702142e-18
-2.492456e-18
7.754822e-19
-2.567569e-18
-1.867199e-18
3.879316e-18
3.250249e-18
9.608108e-19
5.714947e-19
3.151698e-18
4.102155e-18
-1.427212e-19
-2.586798e-18
5.816246e-19
-5.517370e-19
-1.857188e-18
6.896002e-19
8.078911e-19
-3.231563e-18
1.492603e-18
4.635243e-18
-3.184482e-19
1.205540e-18
2.954859e-18
1.247173e-18
-3.827433e-18
-2.496359e-18
1.212710e-18
-2.884406e-19
1.684053e-18
6.744768e-19
2.418159e-18
-3.603567e-18
-2.147025e-18
-2.677382e-18
-2.088282e-19
2.120213e-18
7.357908e-19
-1.871136e-19
3.576620e-18
1.892705e-18
2.196930e-18
3.561880e-18
4.108944e-18
4.692357e-18
1.917911e-17
6.069616e-18
-2.230260e-18
-2.940610e-18
5.708303e-18
-8.222172e-18
-1.025132e-17
-1.167663e-17
-3.529702e-18
-3.842797e-18
-2.602208e-17
9.635537e-18
8.968401e-17
2.489314e-16
6.711094e-16
1.804455e-15
4.851688e-15
1.264396e-14
3.319448e-14
9.267713e-14
2.908745e-13
9.875209e-13
3.223923e-12
9.567758e-12
2.620150e-11
6.796485e-11
1.695177e-10
4.092775e-10
9.586713e-10
2.179000e-09
4.803676e-09
1.026658e-08
2.126793e-08
4.270509e-08
8.312835e-08
1.568940e-07
2.871489e-07
5.096527e-07
8.771891e-07
1.463905e-06
2.368384e-06
3.713717e-06
5.642491e-06
8.304841e-06
1.183869e-05
1.634331e-05
2.184990e-05
2.829517e-05
3.550525e-05
4.319576e-05
5.099056e-05
5.845713e-05
6.515164e-05
7.066530e-05
7.466373e-05
7.691463e-05
7.730274e-05
7.583427e-05
7.263471e-05
6.794304e-05
6.210337e-05
5.555228e-05
4.879752e-05
4.238317e-05
3.683812e-05
3.260977e-05
2.999226e-05
2.906533e-05
2.966312e-05
3.138822e-05
3.367496e-05
3.589145e-05
3.745737e-05
3.794961e-05
3.717207e-05
3.517633e-05
3.223206e-05
2.875654e-05
2.522001e-05
2.204678e-05
1.953262e-05
1.779550e-05
1.676939e-05
1.624074e-05
1.591626e-05
0.000000e+00
0.000000e+00
-0.000000e+00
-0.000000e+00
-0.000000e+00
-0.000000e+00
-5.927357e-19
9.878928e-19
-4.362513e-18
-4.255831e-18
-1.732758e-18
-1.580628e-18
-4.544850e-20
-2.567569e-18
-3.626354e-19
2.245619e-18
-1.634516e-18
5.327126e-18
-2.904785e-18
1.447926e-18
1.485018e-18
2.672051e-18
2.063970e-19
-2.238017e-20
-1.050926e-18
3.185353e-19
1.535274e-19
3.120555e-18
8.446847e-19
4.646220e-18
3.767040e-18
3.051649e-18
-1.739223e-18
-1.476622e-18
3.682130e-18
-2.767742e-18
-4.215639e-18
-2.240880e-18
-3.618052e-18
-1.367002e-19
-2.894409e-18
-3.264173e-18
-4.903934e-18
-9.034269e-19
3.804378e-18
3.538815e-18
-5.928763e-18
-1.589733e-18
-3.224266e-18
-1.521826e-18
8.488734e-19
-3.986336e-18
-3.795818e-18
-2.300539e-18
5.382851e-18
3.190365e-18
1.322780e-18
6.698695e-21
5.065336e-18
1.564701e-18
-5.453454e-18
-1.718928e-17
-1.261637e-17
-2.470287e-17
-1.093462e-17
4.719347e-18
1.521182e-17
8.468607e-17
2.480032e-16
6.624015e-16
1.858577e-15
5.096146e-15
1.331450e-14
3.355916e-14
8.288976e-14
2.092189e-13
5.914648e-13
1.978598e-12
6.916936e-12
2.182557e-11
6.090097e-11
1.562474e-10
3.803866e-10
8.926837e-10
2.032183e-09
4.494111e-09
9.649368e-09
2.009667e-08
4.057300e-08
7.938151e-08
1.505104e-07
2.765826e-07
4.926547e-07
8.506320e-07
1.423658e-06
2.309302e-06
3.629814e-06
5.527365e-06
8.152364e-06
1.164394e-05
1.610364e-05
2.156591e-05
2.797144e-05
3.515055e-05
4.282267e-05
5.061459e-05
5.809538e-05
6.482140e-05
7.038271e-05
7.444274e-05
7.676637e-05
7.723515e-05
7.585206e-05
7.273937e-05
6.813276e-05
6.237275e-05
5.589169e-05
4.919220e-05
4.281236e-05
3.727470e-05
3.302119e-05
3.034320e-05
2.932243e-05
2.980111e-05
3.139613e-05
3.356073e-05
3.568331e-05
3.720109e-05
3.770203e-05
3.699209e-05
3.511528e-05
3.232534e-05
2.901832e-05
2.564188e-05
2.260081e-05
2.017806e-05
1.848778e-05
1.746931e-05
1.692167e-05
1.656769e-05
0.000000e+00
0.000000e+00
-0.000000e+00
-0.000000e+00
-0.000000e+00
1.975786e-19
2.766100e-18
-5.152827e-18
-2.477624e-18
1.930337e-18
-5.137042e-18
-3.860674e-18
-4.437625e-18
1.337601e-18
9.673453e-19
1.380326e-18
1.162058e-18
-5.777967e-18
-1.634434e-20
-3.361351e-18
-2.020985e-18
-3.930343e-18
-3.967699e-18
-2.690017e-18
-4.158973e-18
1.346780e-18
3.157404e-18
-1.524043e-18
4.692545e-19
-2.197058e-18
8.782061e-19
-2.400677e-19
8.832385e-19
-2.277676e-19
-2.974289e-18
-1.365804e-18
-5.721395e-18
8.606943e-19
3.467174e-19
-2.106642e-18
-3.733373e-18
-1.312921e-18
2.651965e-18
2.759596e-18
2.256832e-19
4.343350e-18
-1.915823e-18
-3.753589e-18
-2.123567e-18
3.859906e-19
-1.428682e-18
-1.188803e-19
-8.472087e-19
4.991047e-18
2.544106e-18
8.037351e-19
7.717247e-18
4.676929e-18
4.312109e-18
5.171418e-18
-2.248395e-18
-1.816823e-18
-5.760500e-18
-6.190773e-18
3.009986e-18
1.395371e-17
5.130169e-17
8.858508e-17
2.235403e-16
6.785445e-16
1.963687e-15
5.374069e-15
1.412454e-14
3.593981e-14
8.805726e-14
2.077139e-13
4.815030e-13
1.188143e-12
3.594143e-12
1.308663e-11
4.547199e-11
1.342411e-10
3.470487e-10
8.293436e-10
1.891215e-09
4.175300e-09
8.966362e-09
1.872986e-08
3.800124e-08
7.478330e-08
1.426245e-07
2.635229e-07
4.716889e-07
8.179548e-07
1.374221e-06
2.236786e-06
3.526834e-06
5.386000e-06
7.965029e-06
1.140457e-05
1.580899e-05
2.121685e-05
2.757377e-05
3.471529e-05
4.236551e-05
5.015471e-05
5.765374e-05
6.441888e-05
7.003841e-05
7.417275e-05
7.658301e-05
7.714678e-05
7.586318e-05
7.285087e-05
6.834204e-05
6.267346e-05
5.627301e-05
4.963771e-05
4.329888e-05
3.777171e-05
3.349166e-05
3.074664e-05
2.962017e-05
2.996333e-05
3.140902e-05
3.343179e-05
3.544295e-05
3.689971e-05
3.740276e-05
3.676071e-05
3.500938e-05
3.238487e-05
2.925941e-05
2.605519e-05
2.315472e-05
2.082621e-05
1.917938e-05
1.815981e-05
1.758140e-05
1.718629e-05
0.000000e+00
0.000000e+00
-0.000000e+00
-0.000000e+00
-0.000000e+00
-5.927357e-19
8.969958e-19
-3.556414e-18
4.712221e-19
3.723376e-18
2.719699e-18
1.276368e-18
1.276368e-18
9.376813e-19
4.742136e-19
1.675737e-18
-5.488397e-18
-9.326510e-19
-2.137768e-18
2.070610e-19
-4.688545e-18
-3.854506e-18
-4.145058e-18
3.623540e-18
3.128144e-18
-2.394108e-18
-4.161122e-18
-3.208501e-18
-4.204551e-18
-4.530236e-18
-1.581703e-18
-5.522010e-18
8.608276e-20
-6.779225e-19
4.279492e-18
1.038692e-18
2.278013e-18
2.715539e-18
9.589100e-19
5.732740e-19
-2.458442e-18
3.405376e-18
1.342130e-18
-4.553841e-19
-2.100579e-18
-4.441757e-18
2.625254e-18
-1.783978e-18
9.089946e-19
8.706854e-19
2.801207e-18
-3.634936e-18
-1.462652e-17
3.979862e-18
-2.277319e-18
6.056185e-18
5.970350e-18
4.055693e-18
1.125210e-18
2.140617e-18
2.243318e-18
4.319478e-18
1.751959e-17
2.284879e-17
1.749933e-17
2.837347e-17
6.769018e-17
1.094124e-16
2.320944e-16
7.197519e-16
2.026464e-15
5.529035e-15
1.462786e-14
3.765892e-14
9.383690e-14
2.248146e-13
5.150508e-13
1.129160e-12
2.469939e-12
6.259979e-12
2.159593e-11
8.337765e-11
2.738145e-10
7.391426e-10
1.759396e-09
3.911194e-09
8.359167e-09
1.738084e-08
3.524229e-08
6.957275e-08
1.334049e-07
2.480300e-07
4.467085e-07
7.790535e-07
1.315516e-06
2.150866e-06
3.404967e-06
5.218733e-06
7.743246e-06
1.112094e-05
1.545961e-05
2.080275e-05
2.710202e-05
3.419921e-05
4.182402e-05
4.961076e-05
5.713214e-05
6.394399e-05
6.963207e-05
7.385280e-05
7.636257e-05
7.703417e-05
7.586234e-05
7.296192e-05
6.856160e-05
6.299451e-05
5.668412e-05
5.012168e-05
4.383121e-05
3.831977e-05
3.401539e-05
3.120162e-05
2.996336e-05
3.016069e-05
3.144336e-05
3.330871e-05
3.519280e-05
3.657468e-05
3.706927e-05
3.648876e-05
3.486085e-05
3.240323e-05
2.946278e-05
2.643418e-05
2.367552e-05
2.143861e-05
1.982790e-05
1.879573e-05
1.817268e-05
1.772310e-05
0.000000e+00
0.000000e+00
-0.000000e+00
-0.000000e+00
-0.000000e+00
-2.173364e-18
3.951571e-18
3.161257e-18
1.975786e-19
-3.860674e-18
-3.465517e-18
8.051462e-19
2.032256e-18
9.521038e-19
-4.515328e-18
1.262481e-18
-8.139869e-19
-2.797176e-18
-2.440564e-19
-1.517235e-18
-3.029095e-18
-1.894020e-18
2.821182e-18
4.383741e-18
-4.983688e-18
-2.459873e-18
-4.505859e-18
5.940103e-18
-1.985333e-18
-2.662821e-18
-1.307234e-18
4.975771e-19
-4.346365e-18
1.314360e-18
6.883576e-19
3.022295e-18
-2.125375e-18
4.638229e-18
-8.221341e-19
1.557670e-18
1.417400e-18
-1.961708e-18
1.673739e-18
8.030814e-19
2.306693e-18
-1.012805e-18
2.849531e-18
-1.427641e-18
1.730481e-18
4.178343e-18
9.697563e-18
1.446892e-17
-9.376330e-19
1.205682e-18
2.572665e-18
5.488065e-18
-3.397174e-18
9.910666e-19
-4.707633e-18
-1.153208e-17
-6.202179e-18
-0.000000e+00
5.620537e-18
8.777602e-18
1.532827e-17
6.708404e-18
4.406183e-17
1.020151e-16
2.690772e-16
7.412981e-16
2.066875e-15
5.620577e-15
1.482506e-14
3.835877e-14
9.670487e-14
2.364573e-13
5.571854e-13
1.253739e-12
2.667252e-12
5.393209e-12
1.134898e-11
3.221418e-11
1.299376e-10
4.964588e-10
1.478374e-09
3.612998e-09
7.915516e-09
1.639338e-08
3.290185e-08
6.453099e-08
1.236493e-07
2.307320e-07
4.180241e-07
7.338727e-07
1.247205e-06
2.051114e-06
3.263910e-06
5.025550e-06
7.487331e-06
1.079361e-05
1.505611e-05
2.032414e-05
2.655649e-05
3.360240e-05
4.119815e-05
4.898264e-05
5.653052e-05
6.339667e-05
6.916347e-05
7.348228e-05
7.610374e-05
7.689504e-05
7.584609e-05
7.306776e-05
6.878544e-05
6.332897e-05
5.711766e-05
5.063704e-05
4.440364e-05
3.891579e-05
3.459323e-05
3.171424e-05
3.036429e-05
3.041202e-05
3.152410e-05
3.322126e-05
3.496546e-05
3.625895e-05
3.673242e-05
3.620287e-05
3.469069e-05
3.239531e-05
2.963769e-05
2.678370e-05
2.416538e-05
2.201644e-05
2.043497e-05
1.937992e-05
1.869968e-05
1.818307e-05
0.000000e+00
0.000000e+00
-0.000000e+00
3.951571e-19
1.975786e-19
9.089700e-20
2.173364e-18
-3.739160e-18
-1.565796e-18
-4.103701e-18
-1.580628e-18
-6.410419e-19
4.120029e-18
3.879993e-18
-1.334476e-18
-2.741734e-18
-3.737038e-18
8.663946e-19
1.057796e-18
4.711190e-18
4.915219e-18
4.684933e-18
2.252990e-18
9.950161e-19
-8.324814e-19
2.706694e-18
1.948836e-18
-3.537677e-18
2.831140e-18
-1.573406e-18
2.615466e-19
4.887267e-18
4.579358e-18
2.595183e-18
2.630009e-19
-2.937536e-18
-2.229891e-18
5.738136e-19
2.705899e-18
-7.451311e-19
-2.662193e-18
-5.227429e-18
-5.597137e-18
-1.613807e-18
-3.207743e-18
-4.324111e-18
-6.217692e-18
-9.170591e-18
1.295939e-18
9.096433e-18
8.534657e-18
6.848195e-18
1.352427e-17
7.168977e-18
7.666022e-18
-5.587843e-18
7.498247e-19
-1.069492e-18
-1.131394e-17
-7.519482e-18
1.499717e-18
-1.474541e-17
-1.804889e-17
1.736038e-17
8.559519e-18
1.310782e-17
2.253150e-17
8.477104e-17
2.617719e-16
7.458710e-16
2.101503e-15
5.634343e-15
1.487584e-14
3.839442e-14
9.705616e-14
2.397301e-13
5.762952e-13
1.339063e-12
2.977017e-12
6.243212e-12
1.216863e-11
2.249736e-11
4.816678e-11
1.710298e-10
7.621371e-10
2.674734e-09
7.066796e-09
1.563119e-08
3.160625e-08
6.115907e-08
1.155410e-07
2.140478e-07
3.877293e-07
6.836829e-07
1.169477e-06
1.936721e-06
3.102258e-06
4.804992e-06
7.196234e-06
1.042216e-05
1.459863e-05
1.978144e-05
2.593758e-05
3.292499e-05
4.048767e-05
4.826983e-05
5.584817e-05
6.277616e-05
6.863186e-05
7.306044e-05
7.580570e-05
7.672843e-05
7.581325e-05
7.316707e-05
6.901223e-05
6.367569e-05
5.757307e-05
5.118447e-05
4.501890e-05
3.956559e-05
3.523529e-05
3.230004e-05
3.084480e-05
3.074577e-05
3.168591e-05
3.320918e-05
3.480390e-05
3.599663e-05
3.643532e-05
3.594350e-05
3.453581e-05
3.239443e-05
2.981463e-05
2.713289e-05
2.465383e-05
2.259127e-05
2.103532e-05
1.995061e-05
1.920352e-05
1.860875e-05
0.000000e+00
0.000000e+00
-0.000000e+00
-1.185471e-18
-5.927357e-19
1.383050e-18
-2.884755e-19
1.185471e-18
-1.109406e-18
-2.203981e-18
1.411761e-18
2.331753e-18
3.181938e-18
-2.379925e-18
-3.106442e-19
1.082809e-18
4.645648e-18
-2.623957e-18
-5.200868e-18
-1.486190e-18
9.352707e-19
4.187716e-18
2.114603e-18
2.627345e-18
3.836054e-18
1.511615e-18
-2.828760e-18
4.535589e-18
4.356489e-18
2.625161e-18
3.441297e-18
-6.738865e-20
3.767099e-18
-1.519052e-18
-6.497759e-18
7.404420e-19
3.577120e-19
8.935767e-20
-4.401822e-20
2.381526e-18
2.446184e-19
-3.393792e-18
1.036036e-18
3.306954e-18
-9.778867e-18
-8.691816e-18
-8.041180e-18
3.994947e-18
8.970815e-18
-2.183275e-18
-1.444015e-17
-5.372432e-18
5.628251e-19
3.209832e-18
1.089318e-17
1.070892e-19
-1.389754e-17
-1.248359e-17
9.602649e-19
1.588539e-17
6.091285e-18
3.973237e-18
-1.426745e-17
9.347839e-18
4.201042e-19
4.673146e-18
2.384383e-17
9.062672e-17
2.672777e-16
7.593989e-16
2.108419e-15
5.624327e-15
1.476355e-14
3.802180e-14
9.604099e-14
2.375797e-13
5.754189e-13
1.360042e-12
3.118234e-12
6.867047e-12
1.430594e-11
2.759630e-11
4.822360e-11
8.157363e-11
2.032880e-10
9.491022e-10
4.156466e-09
1.275443e-08
2.976275e-08
5.985759e-08
1.121544e-07
2.034442e-07
3.625374e-07
6.348652e-07
1.086883e-06
1.809459e-06
2.918911e-06
4.553848e-06
6.865908e-06
1.000294e-05
1.408471e-05
1.917349e-05
2.524505e-05
3.216708e-05
3.969251e-05
4.747184e-05
5.508423e-05
6.208145e-05
6.803641e-05
7.258693e-05