# vtk DataFile Version 3.0
Resultado Projeto 3
ASCII
DATASET STRUCTURED_GRID
DIMENSIONS 140 60 1 
POINTS 8400 double
0.000000e+00 0.000000e+00 0.000000e+00
2.517986e-02 0.000000e+00 0.000000e+00
5.035971e-02 0.000000e+00 0.000000e+00
7.553957e-02 0.000000e+00 0.000000e+00
1.007194e-01 0.000000e+00 0.000000e+00
1.258993e-01 0.000000e+00 0.000000e+00
1.510791e-01 0.000000e+00 0.000000e+00
1.762590e-01 0.000000e+00 0.000000e+00
2.014388e-01 0.000000e+00 0.000000e+00
2.266187e-01 0.000000e+00 0.000000e+00
2.517986e-01 0.000000e+00 0.000000e+00
2.769784e-01 0.000000e+00 0.000000e+00
3.021583e-01 0.000000e+00 0.000000e+00
3.273381e-01 0.000000e+00 0.000000e+00
3.525180e-01 0.000000e+00 0.000000e+00
3.776978e-01 0.000000e+00 0.000000e+00
4.028777e-01 0.000000e+00 0.000000e+00
4.280576e-01 0.000000e+00 0.000000e+00
4.532374e-01 0.000000e+00 0.000000e+00
4.784173e-01 0.000000e+00 0.000000e+00
5.035971e-01 0.000000e+00 0.000000e+00
5.287770e-01 0.000000e+00 0.000000e+00
5.539568e-01 0.000000e+00 0.000000e+00
5.791367e-01 0.000000e+00 0.000000e+00
6.043165e-01 0.000000e+00 0.000000e+00
6.294964e-01 0.000000e+00 0.000000e+00
6.546763e-01 0.000000e+00 0.000000e+00
6.798561e-01 0.000000e+00 0.000000e+00
7.050360e-01 0.000000e+00 0.000000e+00
7.302158e-01 0.000000e+00 0.000000e+00
7.553957e-01 0.000000e+00 0.000000e+00
7.805755e-01 0.000000e+00 0.000000e+00
8.057554e-01 0.000000e+00 0.000000e+00
8.309353e-01 0.000000e+00 0.000000e+00
8.561151e-01 0.000000e+00 0.000000e+00
8.812950e-01 0.000000e+00 0.000000e+00
9.064748e-01 0.000000e+00 0.000000e+00
9.316547e-01 0.000000e+00 0.000000e+00
9.568345e-01 0.000000e+00 0.000000e+00
9.820144e-01 0.000000e+00 0.000000e+00
1.007194e+00 0.000000e+00 0.000000e+00
1.032374e+00 0.000000e+00 0.000000e+00
1.057554e+00 0.000000e+00 0.000000e+00
1.082734e+00 0.000000e+00 0.000000e+00
1.107914e+00 0.000000e+00 0.000000e+00
1.133094e+00 0.000000e+00 0.000000e+00
1.158273e+00 0.000000e+00 0.000000e+00
1.183453e+00 0.000000e+00 0.000000e+00
1.208633e+00 0.000000e+00 0.000000e+00
1.233813e+00 0.000000e+00 0.000000e+00
1.258993e+00 0.000000e+00 0.000000e+00
1.284173e+00 0.000000e+00 0.000000e+00
1.309353e+00 0.000000e+00 0.000000e+00
1.334532e+00 0.000000e+00 0.000000e+00
1.359712e+00 0.000000e+00 0.000000e+00
1.384892e+00 0.000000e+00 0.000000e+00
1.410072e+00 0.000000e+00 0.000000e+00
1.435252e+00 0.000000e+00 0.000000e+00
1.460432e+00 0.000000e+00 0.000000e+00
1.485612e+00 0.000000e+00 0.000000e+00
1.510791e+00 0.000000e+00 0.000000e+00
1.535971e+00 0.000000e+00 0.000000e+00
1.561151e+00 0.000000e+00 0.000000e+00
1.586331e+00 0.000000e+00 0.000000e+00
1.611511e+00 0.000000e+00 0.000000e+00
1.636691e+00 0.000000e+00 0.000000e+00
1.661871e+00 0.000000e+00 0.000000e+00
1.687050e+00 0.000000e+00 0.000000e+00
1.712230e+00 0.000000e+00 0.000000e+00
1.737410e+00 0.000000e+00 0.000000e+00
1.762590e+00 0.000000e+00 0.000000e+00
1.787770e+00 0.000000e+00 0.000000e+00
1.812950e+00 0.000000e+00 0.000000e+00
1.838129e+00 0.000000e+00 0.000000e+00
1.863309e+00 0.000000e+00 0.000000e+00
1.888489e+00 0.000000e+00 0.000000e+00
1.913669e+00 0.000000e+00 0.000000e+00
1.938849e+00 0.000000e+00 0.000000e+00
1.964029e+00 0.000000e+00 0.000000e+00
1.989209e+00 0.000000e+00 0.000000e+00
2.014388e+00 0.000000e+00 0.000000e+00
2.039568e+00 0.000000e+00 0.000000e+00
2.064748e+00 0.000000e+00 0.000000e+00
2.089928e+00 0.000000e+00 0.000000e+00
2.115108e+00 0.000000e+00 0.000000e+00
2.140288e+00 0.000000e+00 0.000000e+00
2.165468e+00 0.000000e+00 0.000000e+00
2.190647e+00 0.000000e+00 0.000000e+00
2.215827e+00 0.000000e+00 0.000000e+00
2.241007e+00 0.000000e+00 0.000000e+00
2.266187e+00 0.000000e+00 0.000000e+00
2.291367e+00 0.000000e+00 0.000000e+00
2.316547e+00 0.000000e+00 0.000000e+00
2.341727e+00 0.000000e+00 0.000000e+00
2.366906e+00 0.000000e+00 0.000000e+00
2.392086e+00 0.000000e+00 0.000000e+00
2.417266e+00 0.000000e+00 0.000000e+00
2.442446e+00 0.000000e+00 0.000000e+00
2.467626e+00 0.000000e+00 0.000000e+00
2.492806e+00 0.000000e+00 0.000000e+00
2.517986e+00 0.000000e+00 0.000000e+00
2.543165e+00 0.000000e+00 0.000000e+00
2.568345e+00 0.000000e+00 0.000000e+00
2.593525e+00 0.000000e+00 0.000000e+00
2.618705e+00 0.000000e+00 0.000000e+00
2.643885e+00 0.000000e+00 0.000000e+00
2.669065e+00 0.000000e+00 0.000000e+00
2.694245e+00 0.000000e+00 0.000000e+00
2.719424e+00 0.000000e+00 0.000000e+00
2.744604e+00 0.000000e+00 0.000000e+00
2.769784e+00 0.000000e+00 0.000000e+00
2.794964e+00 0.000000e+00 0.000000e+00
2.820144e+00 0.000000e+00 0.000000e+00
2.845324e+00 0.000000e+00 0.000000e+00
2.870504e+00 0.000000e+00 0.000000e+00
2.895683e+00 0.000000e+00 0.000000e+00
2.920863e+00 0.000000e+00 0.000000e+00
2.946043e+00 0.000000e+00 0.000000e+00
2.971223e+00 0.000000e+00 0.000000e+00
2.996403e+00 0.000000e+00 0.000000e+00
3.021583e+00 0.000000e+00 0.000000e+00
3.046763e+00 0.000000e+00 0.000000e+00
3.071942e+00 0.000000e+00 0.000000e+00
3.097122e+00 0.000000e+00 0.000000e+00
3.122302e+00 0.000000e+00 0.000000e+00
3.147482e+00 0.000000e+00 0.000000e+00
3.172662e+00 0.000000e+00 0.000000e+00
3.197842e+00 0.000000e+00 0.000000e+00
3.223022e+00 0.000000e+00 0.000000e+00
3.248201e+00 0.000000e+00 0.000000e+00
3.273381e+00 0.000000e+00 0.000000e+00
3.298561e+00 0.000000e+00 0.000000e+00
3.323741e+00 0.000000e+00 0.000000e+00
3.348921e+00 0.000000e+00 0.000000e+00
3.374101e+00 0.000000e+00 0.000000e+00
3.399281e+00 0.000000e+00 0.000000e+00
3.424460e+00 0.000000e+00 0.000000e+00
3.449640e+00 0.000000e+00 0.000000e+00
3.474820e+00 0.000000e+00 0.000000e+00
3.500000e+00 0.000000e+00 0.000000e+00
0.000000e+00 1.694915e-02 0.000000e+00
2.517986e-02 1.694915e-02 0.000000e+00
5.035971e-02 1.694915e-02 0.000000e+00
7.553957e-02 1.694915e-02 0.000000e+00
1.007194e-01 1.694915e-02 0.000000e+00
1.258993e-01 1.694915e-02 0.000000e+00
1.510791e-01 1.694915e-02 0.000000e+00
1.762590e-01 1.694915e-02 0.000000e+00
2.014388e-01 1.694915e-02 0.000000e+00
2.266187e-01 1.694915e-02 0.000000e+00
2.517986e-01 1.694915e-02 0.000000e+00
2.769784e-01 1.694915e-02 0.000000e+00
3.021583e-01 1.694915e-02 0.000000e+00
3.273381e-01 1.694915e-02 0.000000e+00
3.525180e-01 1.694915e-02 0.000000e+00
3.776978e-01 1.694915e-02 0.000000e+00
4.028777e-01 1.694915e-02 0.000000e+00
4.280576e-01 1.694915e-02 0.000000e+00
4.532374e-01 1.694915e-02 0.000000e+00
4.784173e-01 1.694915e-02 0.000000e+00
5.035971e-01 1.694915e-02 0.000000e+00
5.287770e-01 1.694915e-02 0.000000e+00
5.539568e-01 1.694915e-02 0.000000e+00
5.791367e-01 1.694915e-02 0.000000e+00
6.043165e-01 1.694915e-02 0.000000e+00
6.294964e-01 1.694915e-02 0.000000e+00
6.546763e-01 1.694915e-02 0.000000e+00
6.798561e-01 1.694915e-02 0.000000e+00
7.050360e-01 1.694915e-02 0.000000e+00
7.302158e-01 1.694915e-02 0.000000e+00
7.553957e-01 1.694915e-02 0.000000e+00
7.805755e-01 1.694915e-02 0.000000e+00
8.057554e-01 1.694915e-02 0.000000e+00
8.309353e-01 1.694915e-02 0.000000e+00
8.561151e-01 1.694915e-02 0.000000e+00
8.812950e-01 1.694915e-02 0.000000e+00
9.064748e-01 1.694915e-02 0.000000e+00
9.316547e-01 1.694915e-02 0.000000e+00
9.568345e-01 1.694915e-02 0.000000e+00
9.820144e-01 1.694915e-02 0.000000e+00
1.007194e+00 1.694915e-02 0.000000e+00
1.032374e+00 1.694915e-02 0.000000e+00
1.057554e+00 1.694915e-02 0.000000e+00
1.082734e+00 1.694915e-02 0.000000e+00
1.107914e+00 1.694915e-02 0.000000e+00
1.133094e+00 1.694915e-02 0.000000e+00
1.158273e+00 1.694915e-02 0.000000e+00
1.183453e+00 1.694915e-02 0.000000e+00
1.208633e+00 1.694915e-02 0.000000e+00
1.233813e+00 1.694915e-02 0.000000e+00
1.258993e+00 1.694915e-02 0.000000e+00
1.284173e+00 1.694915e-02 0.000000e+00
1.309353e+00 1.694915e-02 0.000000e+00
1.334532e+00 1.694915e-02 0.000000e+00
1.359712e+00 1.694915e-02 0.000000e+00
1.384892e+00 1.694915e-02 0.000000e+00
1.410072e+00 1.694915e-02 0.000000e+00
1.435252e+00 1.694915e-02 0.000000e+00
1.460432e+00 1.694915e-02 0.000000e+00
1.485612e+00 1.694915e-02 0.000000e+00
1.510791e+00 1.694915e-02 0.000000e+00
1.535971e+00 1.694915e-02 0.000000e+00
1.561151e+00 1.694915e-02 0.000000e+00
1.586331e+00 1.694915e-02 0.000000e+00
1.611511e+00 1.694915e-02 0.000000e+00
1.636691e+00 1.694915e-02 0.000000e+00
1.661871e+00 1.694915e-02 0.000000e+00
1.687050e+00 1.694915e-02 0.000000e+00
1.712230e+00 1.694915e-02 0.000000e+00
1.737410e+00 1.694915e-02 0.000000e+00
1.762590e+00 1.694915e-02 0.000000e+00
1.787770e+00 1.694915e-02 0.000000e+00
1.812950e+00 1.694915e-02 0.000000e+00
1.838129e+00 1.694915e-02 0.000000e+00
1.863309e+00 1.694915e-02 0.000000e+00
1.888489e+00 1.694915e-02 0.000000e+00
1.913669e+00 1.694915e-02 0.000000e+00
1.938849e+00 1.694915e-02 0.000000e+00
1.964029e+00 1.694915e-02 0.000000e+00
1.989209e+00 1.694915e-02 0.000000e+00
2.014388e+00 1.694915e-02 0.000000e+00
2.039568e+00 1.694915e-02 0.000000e+00
2.064748e+00 1.694915e-02 0.000000e+00
2.089928e+00 1.694915e-02 0.000000e+00
2.115108e+00 1.694915e-02 0.000000e+00
2.140288e+00 1.694915e-02 0.000000e+00
2.165468e+00 1.694915e-02 0.000000e+00
2.190647e+00 1.694915e-02 0.000000e+00
2.215827e+00 1.694915e-02 0.000000e+00
2.241007e+00 1.694915e-02 0.000000e+00
2.266187e+00 1.694915e-02 0.000000e+00
2.291367e+00 1.694915e-02 0.000000e+00
2.316547e+00 1.694915e-02 0.000000e+00
2.341727e+00 1.694915e-02 0.000000e+00
2.366906e+00 1.694915e-02 0.000000e+00
2.392086e+00 1.694915e-02 0.000000e+00
2.417266e+00 1.694915e-02 0.000000e+00
2.442446e+00 1.694915e-02 0.000000e+00
2.467626e+00 1.694915e-02 0.000000e+00
2.492806e+00 1.694915e-02 0.000000e+00
2.517986e+00 1.694915e-02 0.000000e+00
2.543165e+00 1.694915e-02 0.000000e+00
2.568345e+00 1.694915e-02 0.000000e+00
2.593525e+00 1.694915e-02 0.000000e+00
2.618705e+00 1.694915e-02 0.000000e+00
2.643885e+00 1.694915e-02 0.000000e+00
2.669065e+00 1.694915e-02 0.000000e+00
2.694245e+00 1.694915e-02 0.000000e+00
2.719424e+00 1.694915e-02 0.000000e+00
2.744604e+00 1.694915e-02 0.000000e+00
2.769784e+00 1.694915e-02 0.000000e+00
2.794964e+00 1.694915e-02 0.000000e+00
2.820144e+00 1.694915e-02 0.000000e+00
[...]
POINT_DATA 8400
SCALARS RES_Cont double
LOOKUP_TABLE default
0.000000e+00
0.000000e+00
0.000000e+00
0.000000e+00
0.000000e+00
0.000000e+00
0.000000e+00
0.000000e+00
0.000000e+00
0.000000e+00
0.000000e+00
0.000000e+00
0.000000e+00
0.000000e+00
0.000000e+00
0.000000e+00
0.000000e+00
0.000000e+00
0.000000e+00
0.000000e+00
0.000000e+00
0.000000e+00
0.000000e+00
0.000000e+00
0.000000e+00
0.000000e+00
0.000000e+00
0.000000e+00
0.000000e+00
0.000000e+00
0.000000e+00
0.000000e+00
0.000000e+00
0.000000e+00
0.000000e+00
0.000000e+00
0.000000e+00
0.000000e+00
0.000000e+00
0.000000e+00
0.000000e+00
0.000000e+00
0.000000e+00
0.000000e+00
0.000000e+00
0.000000e+00
0.000000e+00
0.000000e+00
0.000000e+00
0.000000e+00
0.000000e+00
0.000000e+00
0.000000e+00
0.000000e+00
0.000000e+00
0.000000e+00
0.000000e+00
0.000000e+00
0.000000e+00
0.000000e+00
0.000000e+00
0.000000e+00
0.000000e+00
0.000000e+00
0.000000e+00
0.000000e+00
0.000000e+00
0.000000e+00
0.000000e+00
0.000000e+00
0.000000e+00
0.000000e+00
0.000000e+00
0.000000e+00
0.000000e+00
0.000000e+00
0.000000e+00
0.000000e+00
0.000000e+00
0.000000e+00
0.000000e+00
0.000000e+00
0.000000e+00
0.000000e+00
0.000000e+00
0.000000e+00
0.000000e+00
0.000000e+00
0.000000e+00
0.000000e+00
0.000000e+00
0.000000e+00
0.000000e+00
0.000000e+00
0.000000e+00
0.000000e+00
0.000000e+00
0.000000e+00
0.000000e+00
0.000000e+00
0.000000e+00
0.000000e+00
0.000000e+00
0.000000e+00
0.000000e+00
0.000000e+00
0.000000e+00
0.000000e+00
0.000000e+00
0.000000e+00
0.000000e+00
0.000000e+00
0.000000e+00
0.000000e+00
0.000000e+00
0.000000e+00
0.000000e+00
0.000000e+00
0.000000e+00
0.000000e+00
0.000000e+00
0.000000e+00
0.000000e+00
0.000000e+00
0.000000e+00
0.000000e+00
0.000000e+00
0.000000e+00
0.000000e+00
0.000000e+00
0.000000e+00
0.000000e+00
0.000000e+00
0.000000e+00
0.000000e+00
0.000000e+00
0.000000e+00
0.000000e+00
0.000000e+00
0.000000e+00
0.000000e+00
-0.000000e+00
-0.000000e+00
-0.000000e+00
-0.000000e+00
-0.000000e+00
-0.000000e+00
3.951571e-19
-2.766100e-18
2.082467e-18
2.280046e-18
-4.179766e-18
-8.663792e-19
2.416391e-18
2.578590e-19
1.793992e-18
-1.484016e-18
-2.249020e-18
1.055251e-18
1.711802e-18
3.100927e-19
4.132212e-18
-7.431019e-19
1.456216e-18
-2.725732e-18
3.624877e-19
3.153142e-18
-4.443110e-18
-3.989587e-18
-1.611129e-18
8.371429e-20
1.183368e-18
2.145410e-18
5.818029e-18
3.649560e-18
4.612813e-18
5.518773e-19
-1.086995e-18
-1.126568e-18
-2.113262e-18
3.788303e-18
6.923920e-17
7.917365e-16
4.900823e-15
2.343546e-14
9.264498e-14
3.029222e-13
7.699262e-13
1.131443e-12
-2.032498e-12
-2.441515e-11
-1.188426e-10
-4.221088e-10
-1.184271e-09
-2.557884e-09
-3.454943e-09
1.979898e-09
3.191367e-08
1.264844e-07
3.441837e-07
7.023261e-07
9.956789e-07
4.576880e-07
-2.650614e-06
-1.119415e-05
-2.811338e-05
-5.165743e-05
-6.179219e-05
-7.022421e-06
1.551197e-04
3.763860e-04
5.667861e-04
6.775506e-04
7.074660e-04
6.776814e-04
6.131776e-04
5.342195e-04
4.541080e-04
3.803852e-04
3.166534e-04
2.639499e-04
2.218404e-04
1.891455e-04
1.642588e-04
1.453497e-04
1.306264e-04
1.185595e-04
1.079847e-04
9.813685e-05
8.865801e-05
7.954703e-05
7.101472e-05
6.329008e-05
5.646862e-05
5.046348e-05
4.505216e-05
3.996724e-05
3.497859e-05
2.993905e-05
2.479116e-05
1.954650e-05
1.425300e-05
8.963169e-06
3.711977e-06
-1.492257e-06
-6.665723e-06
-1.184066e-05
-1.705615e-05
-2.235175e-05
-2.776452e-05
-3.332769e-05
-3.906903e-05
-4.500802e-05
-5.115324e-05
-5.750209e-05
-6.404474e-05
-7.077184e-05
-7.768375e-05
-8.479708e-05
-9.214542e-05
-9.977300e-05
-1.077239e-04
-1.160311e-04
-1.247120e-04
-1.337698e-04
-1.431989e-04
-1.529810e-04
-1.630603e-04
-1.732894e-04
-1.833568e-04
-1.927270e-04
-2.006388e-04
-2.061977e-04
-2.085569e-04
-2.071229e-04
-2.016708e-04
-1.922604e-04
-1.789218e-04
-1.612109e-04
0.000000e+00
0.000000e+00
-0.000000e+00
-0.000000e+00
-0.000000e+00
-0.000000e+00
-0.000000e+00
3.951571e-19
-5.927357e-19
1.778207e-18
7.903142e-19
-3.769777e-18
-2.675203e-18
5.684329e-18
1.580628e-18
-2.141795e-18
-1.256773e-18
-1.647168e-18
3.473138e-18
-2.332029e-18
-2.158549e-18
-2.256690e-18
-1.188830e-18
-2.499037e-19
-1.506236e-18
-5.300042e-19
-1.101132e-18
-5.674228e-18
-1.088246e-18
2.549530e-18
6.096973e-18
4.942465e-18
-4.134878e-18
-6.092770e-18
-6.125735e-18
2.879241e-18
2.023591e-18
2.938448e-18
-2.071722e-18
-7.235463e-18
5.774904e-18
5.369885e-17
3.995319e-16
2.128870e-15
9.482520e-15
3.522579e-14
1.054508e-13
2.182912e-13
2.896223e-14
-2.550750e-12
-1.599485e-11
-6.672656e-11
-2.171541e-10
-5.578878e-10
-1.027959e-09
-6.430878e-10
4.676803e-09
2.631598e-08
8.687250e-08
2.117432e-07
3.789855e-07
3.878685e-07
-3.631385e-07
-3.114244e-06
-9.739676e-06
-2.150775e-05
-3.374385e-05
-2.327436e-05
5.170579e-05
1.882167e-04
3.019646e-04
3.337659e-04
3.074167e-04
2.891410e-04
3.256388e-04
4.129929e-04
5.100912e-04
5.750855e-04
5.901688e-04
5.612150e-04
5.048226e-04
4.376529e-04
3.717693e-04
3.137393e-04
2.656816e-04
2.270903e-04
1.963515e-04
1.715748e-04
1.510281e-04
1.334262e-04
1.180303e-04
1.045107e-04
9.269820e-05
8.240610e-05
7.339174e-05
6.539700e-05
5.818626e-05
5.155158e-05
4.530347e-05
3.927202e-05
3.332240e-05
2.737147e-05
2.139144e-05
1.539761e-05
9.426926e-06
3.517265e-06
-2.306379e-06
-8.037954e-06
-1.369115e-05
-1.929757e-05
-2.490335e-05
-3.056371e-05
-3.633530e-05
-4.226709e-05
-4.839280e-05
-5.472776e-05
-6.127268e-05
-6.802371e-05
-7.498586e-05
-8.218427e-05
-8.966815e-05
-9.750406e-05
-1.057592e-04
-1.144798e-04
-1.236731e-04
-1.332978e-04
-1.432667e-04
-1.534502e-04
-1.636692e-04
-1.736658e-04
-1.830549e-04
-1.912825e-04
-1.976316e-04
-2.013080e-04
-2.016017e-04
-1.980628e-04
-1.905820e-04
-1.792782e-04
-1.641762e-04
-1.447912e-04
0.000000e+00
0.000000e+00
-0.000000e+00
-0.000000e+00
-0.000000e+00
-0.000000e+00
3.951571e-19
-7.903142e-19
3.860674e-18
3.465517e-18
1.669620e-19
-2.447008e-18
2.599138e-18
1.808823e-18
-3.236369e-18
-2.306852e-18
-4.598872e-18
-2.049945e-18
1.842022e-18
-1.870616e-18
-2.390579e-18
1.485036e-18
1.190351e-18
1.120886e-18
2.468167e-18
1.719893e-18
1.030053e-18
-2.140476e-18
-2.282383e-18
4.950861e-18
3.043670e-18
5.145263e-18
3.540027e-18
2.956100e-18
-8.510262e-19
-2.839193e-18
-1.566869e-18
-5.191349e-18
1.686575e-18
9.720608e-18
3.195060e-17
2.198407e-16
1.039541e-15
4.271753e-15
1.470501e-14
3.798961e-14
4.306368e-14
-2.533239e-13
-2.255727e-12
-1.117871e-11
-4.211021e-11
-1.265663e-10
-2.913771e-10
-3.981432e-10
4.573506e-10
5.514172e-09
2.307844e-08
6.783778e-08
1.499216e-07
2.272478e-07
9.078390e-08
-8.178159e-07
-3.569280e-06
-9.585000e-06
-1.898491e-05
-2.416343e-05
1.436536e-06
9.090880e-05
2.161662e-04
2.946490e-04
2.856484e-04
2.124155e-04
1.233008e-04
5.740492e-05
3.928680e-05
8.577851e-05
2.016793e-04
3.658503e-04
5.316538e-04
6.513286e-04
7.017602e-04
6.887453e-04
6.334095e-04
5.578101e-04
4.782879e-04
4.045671e-04
3.408934e-04
2.878369e-04
2.442325e-04
2.085496e-04
1.793958e-04
1.555162e-04
1.357630e-04
1.191756e-04
1.050487e-04
9.288911e-05
8.230079e-05
7.289978e-05
6.430910e-05
5.620897e-05
4.838583e-05
4.074328e-05
3.327370e-05
2.601253e-05
1.899827e-05
1.225018e-05
5.762549e-06
-4.921318e-07
-6.558252e-06
-1.249386e-05
-1.836821e-05
-2.425759e-05
-3.023776e-05
-3.637375e-05
-4.271046e-05
-4.926788e-05
-5.604457e-05
-6.302971e-05
-7.022104e-05
-7.764275e-05
-8.535519e-05
-9.344959e-05
-1.020244e-04
-1.111467e-04
-1.208098e-04
-1.309009e-04
-1.411918e-04
-1.513550e-04
-1.609937e-04
-1.696713e-04
-1.769275e-04
-1.822900e-04
-1.852991e-04
-1.855623e-04
-1.828224e-04
-1.769867e-04
-1.680530e-04
-1.559078e-04
-1.400561e-04
-1.194198e-04
0.000000e+00
0.000000e+00
-0.000000e+00
-0.000000e+00
-0.000000e+00
-0.000000e+00
-1.185471e-18
-1.778207e-18
5.018387e-19
-7.903142e-19
-3.282770e-18
-2.492456e-18
-4.099891e-19
-2.369990e-18
-3.052670e-18
3.484159e-18
3.250249e-18
9.608108e-19
5.714947e-19
1.966226e-18
3.311841e-18
2.524359e-19
-2.784376e-18
-6.038467e-19
-5.517370e-19
1.896804e-18
4.246014e-18
2.175156e-18
1.996376e-18
-1.608373e-18
-3.329132e-18
-3.646667e-18
2.771336e-18
1.328782e-18
-1.883467e-18
-7.412886e-19
-3.620598e-18
-2.875206e-18
-1.209770e-17
7.142093e-18
1.019696e-16
4.759979e-16
1.848241e-15
5.789872e-15
1.182985e-14
-8.920559e-15
-2.475996e-13
-1.570021e-12
-7.029323e-12
-2.496750e-11
-7.061692e-11
-1.445161e-10
-1.065354e-10
7.657862e-10
4.882411e-09
1.810910e-08
4.984007e-08
1.022339e-07
1.286668e-07
-6.301115e-08
-9.637053e-07
-3.489756e-06
-8.725696e-06
-1.595657e-05
-1.563742e-05
1.894488e-05
1.075188e-04
2.086082e-04
2.595237e-04
2.442119e-04
1.880308e-04
1.222704e-04
6.404737e-05
1.737367e-05
-1.811934e-05
-3.923418e-05
-3.401669e-05
1.839375e-05
1.370448e-04
3.186917e-04
5.266545e-04
7.064850e-04
8.167790e-04
8.472479e-04
8.134285e-04
7.402554e-04
6.497548e-04
5.571463e-04
4.715168e-04
3.972296e-04
3.351929e-04
2.842695e-04
2.426246e-04
2.085316e-04
1.805500e-04
1.574046e-04
1.379113e-04
1.210440e-04
1.060450e-04
9.245911e-05
8.006525e-05
6.875628e-05
5.843560e-05
4.896859e-05
4.018694e-05
3.192034e-05
2.402750e-05
1.640978e-05
9.005137e-06
1.769747e-06
-5.341552e-06
-1.238723e-05
-1.943951e-05
-2.657470e-05
-3.385852e-05
-4.133342e-05
-4.901363e-05
-5.689185e-05
-6.495663e-05
-7.321528e-05
-8.171233e-05
-9.053191e-05
-9.977453e-05
-1.095070e-04
-1.196961e-04
-1.301476e-04
-1.404767e-04
-1.501273e-04
-1.584398e-04
-1.647522e-04
-1.685060e-04
-1.693380e-04
-1.671432e-04
-1.620909e-04
-1.545605e-04
-1.449588e-04
-1.334230e-04
-1.195032e-04
-1.019981e-04
-7.910164e-05
0.000000e+00
0.000000e+00
-0.000000e+00
-0.000000e+00
-0.000000e+00
-0.000000e+00
-5.927357e-19
9.878928e-19
-4.362513e-18
-4.255831e-18
-1.732758e-18
-1.383050e-18
-8.357627e-19
-3.357883e-18
8.228359e-19
2.245619e-18
-2.424831e-18
5.327126e-18
-2.904785e-18
-9.230163e-19
1.682597e-18
1.684158e-18
-3.863387e-19
3.138877e-18
3.888538e-18
3.373111e-18
5.092991e-18
-2.685288e-18
4.249921e-18
9.534610e-19
4.740100e-18
4.632278e-18
4.233582e-18
4.481351e-18
6.691256e-18
-2.910709e-19
1.939913e-18
8.960818e-18
7.583644e-18
3.423095e-17
1.745985e-16
7.093100e-16
1.994555e-15
2.144827e-15
-1.919018e-14
-1.778412e-13
-9.679358e-13
-4.056966e-12
-1.370982e-11
-3.618704e-11
-6.153415e-11
2.819463e-11
7.656543e-10
3.834192e-09
1.312281e-08
3.409053e-08
6.409715e-08
5.802197e-08
-1.497773e-07
-9.684352e-07
-3.141306e-06
-7.406591e-06
-1.228692e-05
-7.157541e-06
3.192764e-05
1.108087e-04
1.854147e-04
2.132861e-04
1.935522e-04
1.520051e-04
1.120961e-04
8.233653e-05
6.013734e-05
3.930063e-05
1.475034e-05
-1.551862e-05
-4.945719e-05
-7.972967e-05
-9.207771e-05
-6.447756e-05
2.808486e-05
1.983767e-04
4.292864e-04
6.727697e-04
8.719896e-04
9.894435e-04
1.019491e-03
9.807974e-04
9.002101e-04
8.007878e-04
6.979930e-04
6.009125e-04
5.143445e-04
4.400742e-04
3.776866e-04
3.254784e-04
2.814268e-04
2.438571e-04
2.116347e-04
1.840077e-04
1.603545e-04
1.400229e-04
1.223101e-04
1.065373e-04
9.214183e-05
7.873500e-05
6.610557e-05
5.417861e-05
4.295203e-05
3.243348e-05
2.259355e-05
1.334312e-05
4.534526e-06
-4.018316e-06
-1.250920e-05
-2.110715e-05
-2.993111e-05
-3.903900e-05
-4.843496e-05
-5.809304e-05
-6.798814e-05
-7.811899e-05
-8.850592e-05
-9.915293e-05
-1.099776e-04
-1.207307e-04
-1.309413e-04
-1.399193e-04
-1.468347e-04
-1.508614e-04
-1.513519e-04
-1.479929e-04
-1.408904e-04
-1.305404e-04
-1.176517e-04
-1.028274e-04
-8.618199e-05
-6.705642e-05
-4.403339e-05
-1.537961e-05
0.000000e+00
0.000000e+00
-0.000000e+00
-0.000000e+00
-0.000000e+00
1.975786e-19
2.766100e-18
-5.152827e-18
-2.477624e-18
1.930337e-18
-3.161257e-18
-5.046145e-18
-4.240047e-18
9.424443e-19
1.757659e-18
9.851687e-19
1.359636e-18
-5.777967e-18
-1.634434e-20
-1.780722e-18
-2.811299e-18
-5.715080e-19
-1.612793e-20
1.656711e-18
2.786524e-19
-2.338480e-19
-3.438753e-18
-2.845860e-18
-2.204996e-18
8.130216e-19
3.781604e-18
-1.623118e-18
-5.348378e-18
-1.474472e-18
3.515186e-18
-3.888876e-18
1.498116e-18
6.849285e-18
2.307111e-17
6.880202e-17
2.424566e-16
5.110966e-16
-7.060106e-16
-1.599680e-14
-1.102505e-13
-5.475809e-13
-2.179397e-12
-6.993394e-12
-1.677677e-11
-1.923647e-11
7.534433e-11
6.373333e-10
2.782968e-09
8.938861e-09
2.186607e-08
3.645246e-08
1.225355e-08
-1.877117e-07
-8.919631e-07
-2.675323e-06
-5.953022e-06
-8.615230e-06
1.957813e-07
3.966616e-05
1.049851e-04
1.572577e-04
1.703381e-04
1.502996e-04
1.188476e-04
9.263740e-05
7.700035e-05
6.964531e-05
6.540592e-05
5.913823e-05
4.705756e-05
2.712510e-05
-1.064423e-06
-3.648868e-05
-7.648991e-05
-1.157759e-04
-1.447588e-04
-1.476532e-04
-1.021330e-04
1.477058e-05
2.124295e-04
4.727107e-04
7.501653e-04
9.900110e-04
1.151718e-03
1.222312e-03
1.213826e-03
1.150811e-03
1.057812e-03
9.528267e-04
8.467266e-04
7.455191e-04
6.525755e-04
5.697482e-04
4.976737e-04
4.359010e-04
3.831815e-04
3.378980e-04
2.984704e-04
2.636140e-04
2.324279e-04
2.043574e-04
1.790953e-04
1.564718e-04
1.363609e-04
1.186137e-04
1.030197e-04
8.929089e-05
7.706719e-05
6.593658e-05
5.546956e-05
4.526320e-05
3.498882e-05
2.443349e-05
1.352337e-05
2.319358e-06
-9.016394e-06
-2.027252e-05
-3.123765e-05
-4.172195e-05
-5.153553e-05
-6.042858e-05
-6.802166e-05
-7.376834e-05
-7.698731e-05
-7.697449e-05
-7.316863e-05
-6.530891e-05
-5.350729e-05
-3.817422e-05
-1.979284e-05
1.379552e-06
2.553281e-05
5.329144e-05
8.538421e-05
1.220322e-04
0.000000e+00
0.000000e+00
-0.000000e+00
-0.000000e+00
-0.000000e+00
-5.927357e-19
8.969958e-19
-3.556414e-18
4.712221e-19
3.723376e-18
7.439131e-19
2.856997e-18
1.276368e-18
3.308624e-18
-7.112577e-19
2.466051e-18
-5.883554e-18
-9.326510e-19
-2.335346e-18
7.997966e-19
-2.515181e-18
-2.980921e-19
7.944061e-19
-1.908659e-18
-1.005221e-18
-3.168637e-18
-3.111996e-18
-3.420911e-18
-6.256402e-18
-1.885650e-18
1.655619e-18
-4.367155e-18
-5.294939e-18
-1.166721e-17
-1.473445e-17
-1.507185e-17
1.427420e-18
1.867586e-17
2.717944e-17
7.261910e-17
6.490058e-17
-1.075494e-15
-1.032398e-14
-6.157050e-14
-2.872816e-13
-1.092234e-12
-3.297143e-12
-6.799177e-12
-7.938120e-13
7.778522e-11
4.728195e-10
1.887669e-09
5.741319e-09
1.311663e-08
1.813702e-08
-1.320881e-08
-1.898411e-07
-7.665635e-07
-2.165739e-06
-4.528314e-06
-5.332790e-06
5.675598e-06
4.203888e-05
9.300573e-05
1.284240e-04
1.337340e-04
1.171985e-04
9.519586e-05
7.841430e-05
6.941392e-05
6.620518e-05
6.569552e-05
6.530892e-05
6.324874e-05
5.820724e-05
4.907122e-05
3.482355e-05
1.459922e-05
-1.219182e-05
-4.571459e-05
-8.540103e-05
-1.291754e-04
-1.722123e-04
-2.054812e-04
-2.142981e-04
-1.780516e-04
-7.427589e-05
1.110605e-04
3.717766e-04
6.770511e-04
9.795483e-04
1.232368e-03
1.404708e-03
1.488437e-03
1.494684e-03
1.444728e-03
1.360835e-03
1.260661e-03
1.155722e-03
1.052442e-03
9.540258e-04
8.620218e-04
7.772241e-04
7.000324e-04
6.305433e-04
5.685814e-04
5.137528e-04
4.655268e-04
4.233174e-04
3.865415e-04
3.546441e-04
3.270924e-04
3.033514e-04
2.828570e-04
2.650026e-04
2.491541e-04
2.346987e-04
2.211221e-04
2.080941e-04
1.955347e-04
1.836315e-04
1.727967e-04
1.635710e-04
1.565053e-04
1.520636e-04
1.505779e-04
1.522662e-04
1.572917e-04
1.658239e-04
1.780619e-04
1.942022e-04
2.143690e-04
2.385516e-04
2.666036e-04
2.983069e-04
3.334281e-04
3.716275e-04
4.121339e-04
4.532602e-04
4.920078e-04
0.000000e+00
0.000000e+00
-0.000000e+00
-0.000000e+00
-0.000000e+00
-2.173364e-18
3.951571e-18
3.161257e-18
1.975786e-19
-4.255831e-18
-2.477624e-18
2.188196e-18
2.032256e-18
1.149682e-18
-4.120171e-18
1.064902e-18
1.161799e-18
-2.797176e-18
5.462578e-19
8.537078e-19
1.321623e-19
-4.264963e-18
2.927864e-18
-3.368224e-18
1.992794e-18
3.102943e-18
-1.830656e-18
-1.112445e-18
5.553268e-18
4.799715e-18
-2.644835e-18
-5.703423e-18
-8.130021e-18
-9.385498e-18
-9.206354e-18
-1.613863e-18
-3.204166e-18
1.631210e-17
2.726559e-17
-3.549566e-17
-7.631268e-16
-5.749010e-15
-3.153883e-14
-1.403009e-13
-5.092666e-13
-1.416339e-12
-2.180369e-12
5.277619e-12
6.237669e-11
3.213376e-10
1.202150e-09
3.472621e-09
7.282769e-09
7.060240e-09
-2.424745e-08
-1.698858e-07
-6.204232e-07
-1.667670e-06
-3.236522e-06
-2.647501e-06
9.067296e-06
4.007424e-05
7.793674e-05
1.014656e-04
1.034948e-04
9.199933e-05
7.850834e-05
6.944010e-05
6.554332e-05
6.472976e-05
6.453279e-05
6.336764e-05
6.082176e-05
5.732016e-05
5.350830e-05
4.966668e-05
4.536729e-05
3.944094e-05
3.019736e-05
1.576455e-05
-5.563580e-06
-3.501939e-05
-7.311019e-05
-1.192935e-04
-1.714016e-04
-2.249308e-04
-2.723358e-04
-3.022720e-04
-2.990292e-04
-2.435272e-04
-1.179250e-04
8.657613e-05
3.627733e-04
6.858293e-04
1.018787e-03
1.323004e-03
1.568386e-03
1.739165e-03
1.834180e-03
1.863193e-03
1.841610e-03
1.785697e-03
1.709453e-03
1.623319e-03
1.534229e-03
1.446348e-03
1.361978e-03
1.282345e-03
1.208140e-03
1.139844e-03
1.077872e-03
1.022591e-03
9.742798e-04
9.330538e-04
8.988006e-04
8.711467e-04
8.494806e-04
8.330426e-04
8.210717e-04
8.129748e-04
8.084698e-04
8.076518e-04
8.109563e-04
8.190286e-04
8.325453e-04
8.520475e-04
8.778410e-04
9.099862e-04
9.483702e-04
9.928179e-04
1.043173e-03
1.099268e-03
1.160724e-03
1.226586e-03
1.294888e-03
1.362326e-03
1.424185e-03
1.474591e-03
1.507112e-03
1.515730e-03
0.000000e+00
0.000000e+00
-0.000000e+00
3.951571e-19
-1.975786e-19
9.089700e-20
2.173364e-18
-3.739160e-18
-1.565796e-18
-2.523073e-18
-7.903142e-19
-1.826513e-18
4.120029e-18
2.299365e-18
-2.124790e-18
-2.741734e-18
-4.922510e-18
8.663946e-19
3.140263e-18
4.422715e-18
-4.994325e-18
-4.191270e-18
-5.923796e-18
-9.956013e-19
2.237878e-18
3.087019e-18
5.840127e-18
1.856990e-19
5.186298e-18
5.999584e-19
1.705830e-18
4.067289e-18
7.344684e-19
-4.153104e-18
-7.248909e-19
-1.620687e-17
-4.169634e-20
1.406944e-17
-2.579942e-17
-4.376931e-16
-2.889405e-15
-1.495966e-14
-6.381255e-14
-2.194571e-13
-5.379014e-13
-3.270083e-13
5.842079e-12
4.354604e-11
2.028552e-10
7.204019e-10
1.971158e-09
3.668352e-09
1.093311e-09
-2.623076e-08
-1.394500e-07
-4.755755e-07
-1.221038e-06
-2.147622e-06
-6.533880e-07
1.051632e-05
3.526263e-05
6.230656e-05
7.790214e-05
7.914264e-05
7.260410e-05
6.595538e-05
6.282945e-05
6.303911e-05
6.462155e-05
6.549730e-05
6.433645e-05
6.080909e-05
5.546192e-05
4.941443e-05
4.398859e-05
4.032267e-05
3.900555e-05
3.979486e-05
4.150733e-05
4.214851e-05
3.927050e-05
3.044655e-05
1.370727e-05
-1.216511e-05
-4.752230e-05
-9.191092e-05
-1.441623e-04
-2.022985e-04
-2.632794e-04
-3.227086e-04
-3.744492e-04
-4.101217e-04
-4.186789e-04
-3.867585e-04
-3.008511e-04
-1.512305e-04
6.408013e-05
3.372478e-04
6.513478e-04
9.836021e-04
1.309981e-03
1.609557e-03
1.867355e-03
2.075297e-03
2.231631e-03
2.339498e-03
2.405229e-03
2.436774e-03
2.442482e-03
2.430279e-03
2.407207e-03
2.379242e-03
2.351257e-03
2.327070e-03
2.309501e-03
2.300427e-03
2.300837e-03
2.310929e-03
2.330260e-03
2.357964e-03
2.393029e-03
2.434571e-03
2.482054e-03
2.535408e-03
2.595017e-03
2.661608e-03
2.736054e-03
2.819143e-03
2.911338e-03
3.012558e-03
3.121947e-03
3.237540e-03
3.355744e-03
3.470635e-03
3.573358e-03
3.652252e-03
3.694386e-03
3.688655e-03
3.629572e-03
3.520085e-03
0.000000e+00
0.000000e+00
-0.000000e+00
-1.185471e-18
9.878928e-19
1.383050e-18
-2.884755e-19
1.185471e-18
-1.109406e-18
-2.599138e-18
-1.688672e-19
3.517224e-18
3.181938e-18
-1.984768e-18
-3.106442e-19
1.082809e-18
3.460176e-18
-2.623957e-18
-6.565609e-19
1.675067e-18
-3.122982e-18
1.710091e-18
3.147944e-18
3.691302e-18
3.942736e-18
2.104351e-18
4.360133e-18
3.395566e-18
7.457466e-18
4.824135e-19
1.557361e-18
1.042018e-18
3.189196e-18
1.121783e-17
6.253950e-18
-3.086837e-19
-4.613328e-18
-3.470501e-17
-2.194803e-16
-1.322656e-15
-6.591708e-15
-2.697135e-14
-8.630666e-14
-1.675758e-13
2.496385e-13
4.522014e-12
2.755063e-11
1.198232e-10
4.063444e-10
1.043325e-09
1.604931e-09
-1.589114e-09
-2.334651e-08
-1.068323e-07
-3.463021e-07
-8.483083e-07
-1.294893e-06
6.546097e-07
1.041188e-05
2.905878e-05
4.780033e-05
5.833038e-05
5.994111e-05
5.753112e-05
5.593738e-05
5.705752e-05
6.028024e-05
6.388527e-05
6.616164e-05
6.600897e-05
6.310053e-05
5.777142e-05
5.081110e-05
4.327856e-05
3.636093e-05
3.123017e-05
2.885234e-05
2.975049e-05
3.377793e-05
3.999205e-05
4.670674e-05
5.174235e-05
5.281349e-05
4.793422e-05
3.570923e-05
1.543380e-05
-1.298059e-05
-4.917864e-05
-9.256795e-05
-1.424828e-04
-1.981672e-04