# vtk DataFile Version 3.0
Resultado Projeto 3
ASCII
DATASET STRUCTURED_GRID
DIMENSIONS 140 60 1 
POINTS 8400 double
0.000000e+00 0.000000e+00 0.000000e+00
2.517986e-02 0.000000e+00 0.000000e+00
5.035971e-02 0.000000e+00 0.000000e+00
7.553957e-02 0.000000e+00 0.000000e+00
1.007194e-01 0.000000e+00 0.000000e+00
1.258993e-01 0.000000e+00 0.000000e+00
1.510791e-01 0.000000e+00 0.000000e+00
1.762590e-01 0.000000e+00 0.000000e+00
2.014388e-01 0.000000e+00 0.000000e+00
2.266187e-01 0.000000e+00 0.000000e+00
2.517986e-01 0.000000e+00 0.000000e+00
2.769784e-01 0.000000e+00 0.000000e+00
3.021583e-01 0.000000e+00 0.000000e+00
3.273381e-01 0.000000e+00 0.000000e+00
3.525180e-01 0.000000e+00 0.000000e+00
3.776978e-01 0.000000e+00 0.000000e+00
4.028777e-01 0.000000e+00 0.000000e+00
4.280576e-01 0.000000e+00 0.000000e+00
4.532374e-01 0.000000e+00 0.000000e+00
4.784173e-01 0.000000e+00 0.000000e+00
5.035971e-01 0.000000e+00 0.000000e+00
5.287770e-01 0.000000e+00 0.000000e+00
5.539568e-01 0.000000e+00 0.000000e+00
5.791367e-01 0.000000e+00 0.000000e+00
6.043165e-01 0.000000e+00 0.000000e+00
6.294964e-01 0.000000e+00 0.000000e+00
6.546763e-01 0.000000e+00 0.000000e+00
6.798561e-01 0.000000e+00 0.000000e+00
7.050360e-01 0.000000e+00 0.000000e+00
7.302158e-01 0.000000e+00 0.000000e+00
7.553957e-01 0.000000e+00 0.000000e+00
7.805755e-01 0.000000e+00 0.000000e+00
8.057554e-01 0.000000e+00 0.000000e+00
8.309353e-01 0.000000e+00 0.000000e+00
8.561151e-01 0.000000e+00 0.000000e+00
8.812950e-01 0.000000e+00 0.000000e+00
9.064748e-01 0.000000e+00 0.000000e+00
9.316547e-01 0.000000e+00 0.000000e+00
9.568345e-01 0.000000e+00 0.000000e+00
9.820144e-01 0.000000e+00 0.000000e+00
1.007194e+00 0.000000e+00 0.000000e+00
1.032374e+00 0.000000e+00 0.000000e+00
1.057554e+00 0.000000e+00 0.000000e+00
1.082734e+00 0.000000e+00 0.000000e+00
1.107914e+00 0.000000e+00 0.000000e+00
1.133094e+00 0.000000e+00 0.000000e+00
1.158273e+00 0.000000e+00 0.000000e+00
1.183453e+00 0.000000e+00 0.000000e+00
1.208633e+00 0.000000e+00 0.000000e+00
1.233813e+00 0.000000e+00 0.000000e+00
1.258993e+00 0.000000e+00 0.000000e+00
1.284173e+00 0.000000e+00 0.000000e+00
1.309353e+00 0.000000e+00 0.000000e+00
1.334532e+00 0.000000e+00 0.000000e+00
1.359712e+00 0.000000e+00 0.000000e+00
1.384892e+00 0.000000e+00 0.000000e+00
1.410072e+00 0.000000e+00 0.000000e+00
1.435252e+00 0.000000e+00 0.000000e+00
1.460432e+00 0.000000e+00 0.000000e+00
1.485612e+00 0.000000e+00 0.000000e+00
1.510791e+00 0.000000e+00 0.000000e+00
1.535971e+00 0.000000e+00 0.000000e+00
1.561151e+00 0.000000e+00 0.000000e+00
1.586331e+00 0.000000e+00 0.000000e+00
1.611511e+00 0.000000e+00 0.000000e+00
1.636691e+00 0.000000e+00 0.000000e+00
1.661871e+00 0.000000e+00 0.000000e+00
1.687050e+00 0.000000e+00 0.000000e+00
1.712230e+00 0.000000e+00 0.000000e+00
1.737410e+00 0.000000e+00 0.000000e+00
1.762590e+00 0.000000e+00 0.000000e+00
1.787770e+00 0.000000e+00 0.000000e+00
1.812950e+00 0.000000e+00 0.000000e+00
1.838129e+00 0.000000e+00 0.000000e+00
1.863309e+00 0.000000e+00 0.000000e+00
1.888489e+00 0.000000e+00 0.000000e+00
1.913669e+00 0.000000e+00 0.000000e+00
1.938849e+00 0.000000e+00 0.000000e+00
1.964029e+00 0.000000e+00 0.000000e+00
1.989209e+00 0.000000e+00 0.000000e+00
2.014388e+00 0.000000e+00 0.000000e+00
2.039568e+00 0.000000e+00 0.000000e+00
2.064748e+00 0.000000e+00 0.000000e+00
2.089928e+00 0.000000e+00 0.000000e+00
2.115108e+00 0.000000e+00 0.000000e+00
2.140288e+00 0.000000e+00 0.000000e+00
2.165468e+00 0.000000e+00 0.000000e+00
2.190647e+00 0.000000e+00 0.000000e+00
2.215827e+00 0.000000e+00 0.000000e+00
2.241007e+00 0.000000e+00 0.000000e+00
2.266187e+00 0.000000e+00 0.000000e+00
2.291367e+00 0.000000e+00 0.000000e+00
2.316547e+00 0.000000e+00 0.000000e+00
2.341727e+00 0.000000e+00 0.000000e+00
2.366906e+00 0.000000e+00 0.000000e+00
2.392086e+00 0.000000e+00 0.000000e+00
2.417266e+00 0.000000e+00 0.000000e+00
2.442446e+00 0.000000e+00 0.000000e+00
2.467626e+00 0.000000e+00 0.000000e+00
2.492806e+00 0.000000e+00 0.000000e+00
2.517986e+00 0.000000e+00 0.000000e+00
2.543165e+00 0.000000e+00 0.000000e+00
2.568345e+00 0.000000e+00 0.000000e+00
2.593525e+00 0.000000e+00 0.000000e+00
2.618705e+00 0.000000e+00 0.000000e+00
2.643885e+00 0.000000e+00 0.000000e+00
2.669065e+00 0.000000e+00 0.000000e+00
2.694245e+00 0.000000e+00 0.000000e+00
2.719424e+00 0.000000e+00 0.000000e+00
2.744604e+00 0.000000e+00 0.000000e+00
2.769784e+00 0.000000e+00 0.000000e+00
2.794964e+00 0.000000e+00 0.000000e+00
2.820144e+00 0.000000e+00 0.000000e+00
2.845324e+00 0.000000e+00 0.000000e+00
2.870504e+00 0.000000e+00 0.000000e+00
2.895683e+00 0.000000e+00 0.000000e+00
2.920863e+00 0.000000e+00 0.000000e+00
2.946043e+00 0.000000e+00 0.000000e+00
2.971223e+00 0.000000e+00 0.000000e+00
2.996403e+00 0.000000e+00 0.000000e+00
3.021583e+00 0.000000e+00 0.000000e+00
3.046763e+00 0.000000e+00 0.000000e+00
3.071942e+00 0.000000e+00 0.000000e+00
3.097122e+00 0.000000e+00 0.000000e+00
3.122302e+00 0.000000e+00 0.000000e+00
3.147482e+00 0.000000e+00 0.000000e+00
3.172662e+00 0.000000e+00 0.000000e+00
3.197842e+00 0.000000e+00 0.000000e+00
3.223022e+00 0.000000e+00 0.000000e+00
3.248201e+00 0.000000e+00 0.000000e+00
3.273381e+00 0.000000e+00 0.000000e+00
3.298561e+00 0.000000e+00 0.000000e+00
3.323741e+00 0.000000e+00 0.000000e+00
3.348921e+00 0.000000e+00 0.000000e+00
3.374101e+00 0.000000e+00 0.000000e+00
3.399281e+00 0.000000e+00 0.000000e+00
3.424460e+00 0.000000e+00 0.000000e+00
3.449640e+00 0.000000e+00 0.000000e+00
3.474820e+00 0.000000e+00 0.000000e+00
3.500000e+00 0.000000e+00 0.000000e+00
0.000000e+00 1.694915e-02 0.000000e+00
2.517986e-02 1.694915e-02 0.000000e+00
5.035971e-02 1.694915e-02 0.000000e+00
7.553957e-02 1.694915e-02 0.000000e+00
1.007194e-01 1.694915e-02 0.000000e+00
1.258993e-01 1.694915e-02 0.000000e+00
1.510791e-01 1.694915e-02 0.000000e+00
1.762590e-01 1.694915e-02 0.000000e+00
2.014388e-01 1.694915e-02 0.000000e+00
2.266187e-01 1.694915e-02 0.000000e+00
2.517986e-01 1.694915e-02 0.000000e+00
2.769784e-01 1.694915e-02 0.000000e+00
3.021583e-01 1.694915e-02 0.000000e+00
3.273381e-01 1.694915e-02 0.000000e+00
3.525180e-01 1.694915e-02 0.000000e+00
3.776978e-01 1.694915e-02 0.000000e+00
4.028777e-01 1.694915e-02 0.000000e+00
4.280576e-01 1.694915e-02 0.000000e+00
4.532374e-01 1.694915e-02 0.000000e+00
4.784173e-01 1.694915e-02 0.000000e+00
5.035971e-01 1.694915e-02 0.000000e+00
5.287770e-01 1.694915e-02 0.000000e+00
5.539568e-01 1.694915e-02 0.000000e+00
5.791367e-01 1.694915e-02 0.000000e+00
6.043165e-01 1.694915e-02 0.000000e+00
6.294964e-01 1.694915e-02 0.000000e+00
6.546763e-01 1.694915e-02 0.000000e+00
6.798561e-01 1.694915e-02 0.000000e+00
7.050360e-01 1.694915e-02 0.000000e+00
7.302158e-01 1.694915e-02 0.000000e+00
7.553957e-01 1.694915e-02 0.000000e+00
7.805755e-01 1.694915e-02 0.000000e+00
8.057554e-01 1.694915e-02 0.000000e+00
8.309353e-01 1.694915e-02 0.000000e+00
8.561151e-01 1.694915e-02 0.000000e+00
8.812950e-01 1.694915e-02 0.000000e+00
9.064748e-01 1.694915e-02 0.000000e+00
9.316547e-01 1.694915e-02 0.000000e+00
9.568345e-01 1.694915e-02 0.000000e+00
9.820144e-01 1.694915e-02 0.000000e+00
1.007194e+00 1.694915e-02 0.000000e+00
1.032374e+00 1.694915e-02 0.000000e+00
1.057554e+00 1.694915e-02 0.000000e+00
1.082734e+00 1.694915e-02 0.000000e+00
1.107914e+00 1.694915e-02 0.000000e+00
1.133094e+00 1.694915e-02 0.000000e+00
1.158273e+00 1.694915e-02 0.000000e+00
1.183453e+00 1.694915e-02 0.000000e+00
1.208633e+00 1.694915e-02 0.000000e+00
1.233813e+00 1.694915e-02 0.000000e+00
1.258993e+00 1.694915e-02 0.000000e+00
1.284173e+00 1.694915e-02 0.000000e+00
1.309353e+00 1.694915e-02 0.000000e+00
1.334532e+00 1.694915e-02 0.000000e+00
1.359712e+00 1.694915e-02 0.000000e+00
1.384892e+00 1.694915e-02 0.000000e+00
1.410072e+00 1.694915e-02 0.000000e+00
1.435252e+00 1.694915e-02 0.000000e+00
1.460432e+00 1.694915e-02 0.000000e+00
1.485612e+00 1.694915e-02 0.000000e+00
1.510791e+00 1.694915e-02 0.000000e+00
1.535971e+00 1.694915e-02 0.000000e+00
1.561151e+00 1.694915e-02 0.000000e+00
1.586331e+00 1.694915e-02 0.000000e+00
1.611511e+00 1.694915e-02 0.000000e+00
1.636691e+00 1.694915e-02 0.000000e+00
1.661871e+00 1.694915e-02 0.000000e+00
1.687050e+00 1.694915e-02 0.000000e+00
1.712230e+00 1.694915e-02 0.000000e+00
1.737410e+00 1.694915e-02 0.000000e+00
1.762590e+00 1.694915e-02 0.000000e+00
1.787770e+00 1.694915e-02 0.000000e+00
1.812950e+00 1.694915e-02 0.000000e+00
1.838129e+00 1.694915e-02 0.000000e+00
1.863309e+00 1.694915e-02 0.000000e+00
1.888489e+00 1.694915e-02 0.000000e+00
1.913669e+00 1.694915e-02 0.000000e+00
1.938849e+00 1.694915e-02 0.000000e+00
1.964029e+00 1.694915e-02 0.000000e+00
1.989209e+00 1.694915e-02 0.000000e+00
2.014388e+00 1.694915e-02 0.000000e+00
2.039568e+00 1.694915e-02 0.000000e+00
2.064748e+00 1.694915e-02 0.000000e+00
2.089928e+00 1.694915e-02 0.000000e+00
2.115108e+00 1.694915e-02 0.000000e+00
2.140288e+00 1.694915e-02 0.000000e+00
2.165468e+00 1.694915e-02 0.000000e+00
2.190647e+00 1.694915e-02 0.000000e+00
2.215827e+00 1.694915e-02 0.000000e+00
2.241007e+00 1.694915e-02 0.000000e+00
2.266187e+00 1.694915e-02 0.000000e+00
2.291367e+00 1.694915e-02 0.000000e+00
2.316547e+00 1.694915e-02 0.000000e+00
2.341727e+00 1.694915e-02 0.000000e+00
2.366906e+00 1.694915e-02 0.000000e+00
2.392086e+00 1.694915e-02 0.000000e+00
2.417266e+00 1.694915e-02 0.000000e+00
2.442446e+00 1.694915e-02 0.000000e+00
2.467626e+00 1.694915e-02 0.000000e+00
2.492806e+00 1.694915e-02 0.000000e+00
2.517986e+00 1.694915e-02 0.000000e+00
2.543165e+00 1.694915e-02 0.000000e+00
2.568345e+00 1.694915e-02 0.000000e+00
2.593525e+00 1.694915e-02 0.000000e+00
2.618705e+00 1.694915e-02 0.000000e+00
2.643885e+00 1.694915e-02 0.000000e+00
2.669065e+00 1.694915e-02 0.000000e+00
2.694245e+00 1.694915e-02 0.000000e+00
2.719424e+00 1.694915e-02 0.000000e+00
2.744604e+00 1.694915e-02 0.000000e+00
2.769784e+00 1.694915e-02 0.000000e+00
2.794964e+00 1.694915e-02 0.000000e+00
2.820144e+00 1.694915e-02 0.000000e+00
[...]
POINT_DATA 8400
SCALARS RES_Cont double
LOOKUP_TABLE default
0.000000e+00
0.000000e+00
0.000000e+00
0.000000e+00
0.000000e+00
0.000000e+00
0.000000e+00
0.000000e+00
0.000000e+00
0.000000e+00
0.000000e+00
0.000000e+00
0.000000e+00
0.000000e+00
0.000000e+00
0.000000e+00
0.000000e+00
0.000000e+00
0.000000e+00
0.000000e+00
0.000000e+00
0.000000e+00
0.000000e+00
0.000000e+00
0.000000e+00
0.000000e+00
0.000000e+00
0.000000e+00
0.000000e+00
0.000000e+00
0.000000e+00
0.000000e+00
0.000000e+00
0.000000e+00
0.000000e+00
0.000000e+00
0.000000e+00
0.000000e+00
0.000000e+00
0.000000e+00
0.000000e+00
0.000000e+00
0.000000e+00
0.000000e+00
0.000000e+00
0.000000e+00
0.000000e+00
0.000000e+00
0.000000e+00
0.000000e+00
0.000000e+00
0.000000e+00
0.000000e+00
0.000000e+00
0.000000e+00
0.000000e+00
0.000000e+00
0.000000e+00
0.000000e+00
0.000000e+00
0.000000e+00
0.000000e+00
0.000000e+00
0.000000e+00
0.000000e+00
0.000000e+00
0.000000e+00
0.000000e+00
0.000000e+00
0.000000e+00
0.000000e+00
0.000000e+00
0.000000e+00
0.000000e+00
0.000000e+00
0.000000e+00
0.000000e+00
0.000000e+00
0.000000e+00
0.000000e+00
0.000000e+00
0.000000e+00
0.000000e+00
0.000000e+00
0.000000e+00
0.000000e+00
0.000000e+00
0.000000e+00
0.000000e+00
0.000000e+00
0.000000e+00
0.000000e+00
0.000000e+00
0.000000e+00
0.000000e+00
0.000000e+00
0.000000e+00
0.000000e+00
0.000000e+00
0.000000e+00
0.000000e+00
0.000000e+00
0.000000e+00
0.000000e+00
0.000000e+00
0.000000e+00
0.000000e+00
0.000000e+00
0.000000e+00
0.000000e+00
0.000000e+00
0.000000e+00
0.000000e+00
0.000000e+00
0.000000e+00
0.000000e+00
0.000000e+00
0.000000e+00
0.000000e+00
0.000000e+00
0.000000e+00
0.000000e+00
0.000000e+00
0.000000e+00
0.000000e+00
0.000000e+00
0.000000e+00
0.000000e+00
0.000000e+00
0.000000e+00
0.000000e+00
0.000000e+00
0.000000e+00
0.000000e+00
0.000000e+00
0.000000e+00
0.000000e+00
0.000000e+00
0.000000e+00
0.000000e+00
0.000000e+00
-0.000000e+00
-0.000000e+00
-0.000000e+00
-0.000000e+00
-0.000000e+00
-0.000000e+00
3.951571e-19
-2.766100e-18
2.082467e-18
2.280046e-18
-4.179766e-18
7.142492e-19
2.416391e-18
2.578590e-19
1.793992e-18
-1.484016e-18
-2.249020e-18
1.055251e-18
1.909380e-18
-1.270536e-18
4.132212e-18
-7.431019e-19
1.258638e-18
-3.120889e-18
3.624877e-19
4.733770e-18
-2.664903e-18
-6.307513e-19
1.550128e-18
1.664343e-18
-2.373046e-18
-1.608582e-18
3.644665e-18
4.348978e-18
6.850600e-20
-7.551075e-19
2.135495e-18
4.542930e-18
1.361674e-19
4.364301e-18
1.814293e-18
-2.115780e-18
1.855262e-18
5.840219e-19
3.218745e-18
1.475540e-18
-4.854839e-18
-2.148115e-18
1.368148e-18
2.511431e-18
3.729610e-18
2.986922e-18
9.482601e-18
9.338630e-18
9.104583e-19
-4.208536e-18
-1.392527e-17
-3.752844e-18
7.166678e-18
2.161014e-17
2.280420e-17
-9.261182e-18
-2.654833e-17
2.921263e-18
-5.246159e-18
-5.126315e-18
4.897781e-18
7.452146e-19
-2.620597e-17
-3.932944e-17
-8.885339e-19
8.356625e-17
2.415088e-16
7.787502e-16
2.568017e-15
8.235593e-15
2.567553e-14
7.795112e-14
2.303621e-13
6.608561e-13
1.839158e-12
4.963724e-12
1.299265e-11
3.299195e-11
8.129766e-11
1.944652e-10
4.516726e-10
1.018913e-09
2.232988e-09
4.755163e-09
9.841427e-09
1.979858e-08
3.872101e-08
7.362590e-08
1.361128e-07
2.446480e-07
4.274890e-07
7.260896e-07
1.198549e-06
1.922294e-06
2.994776e-06
4.530677e-06
6.654141e-06
9.485101e-06
1.311999e-05
1.760894e-05
2.293338e-05
2.898931e-05
3.558131e-05
4.243056e-05
4.919687e-05
5.551114e-05
6.101236e-05
6.538227e-05
6.837260e-05
6.982252e-05
6.966659e-05
6.793603e-05
6.475626e-05
6.034293e-05
5.499683e-05
4.909541e-05
4.307685e-05
3.741204e-05
3.256136e-05
2.891764e-05
2.674284e-05
2.611236e-05
2.688400e-05
2.870578e-05
3.106762e-05
3.338926e-05
3.512548e-05
3.586407e-05
3.539507e-05
3.373762e-05
3.112149e-05
2.792993e-05
0.000000e+00
0.000000e+00
-0.000000e+00
-0.000000e+00
-0.000000e+00
-0.000000e+00
-0.000000e+00
3.951571e-19
-5.927357e-19
1.778207e-18
7.903142e-19
-3.769777e-18
-2.280046e-18
5.289172e-18
1.580628e-18
-2.141795e-18
-1.256773e-18
-1.647168e-18
3.473138e-18
-2.332029e-18
-2.948863e-18
-1.861533e-18
-1.188830e-18
-6.450608e-19
-7.159215e-19
1.050624e-18
-3.108179e-19
-1.129921e-18
-4.955105e-19
-4.141488e-19
1.157509e-18
-3.355834e-18
-1.155415e-18
2.455278e-19
5.316550e-19
2.620430e-18
1.400238e-18
-2.107697e-18
-1.159894e-18
-3.314508e-18
1.289925e-18
4.323399e-18
2.211716e-18
6.437818e-19
1.960753e-18
1.301577e-18
-3.288458e-18
2.354747e-18
-9.537760e-19
-2.654115e-18
-5.596815e-18
-4.983629e-18
-1.119755e-18
-2.283472e-18
-8.250776e-19
8.353990e-18
1.125177e-17
-6.529876e-18
-1.461742e-17
-8.361562e-18
5.438689e-18
7.610166e-18
7.504515e-18
-1.754603e-17
-6.885777e-18
-1.017031e-18
7.587471e-18
1.333598e-18
-2.135875e-19
1.722188e-18
-8.297704e-18
1.372354e-17
1.685741e-17
4.541538e-17
1.952277e-16
7.147115e-16
2.406024e-15
7.757429e-15
2.434329e-14
7.440976e-14
2.210767e-13
6.370395e-13
1.779549e-12
4.818843e-12
1.265094e-11
3.220811e-11
7.954518e-11
1.906418e-10
4.435296e-10
1.001992e-09
2.198709e-09
4.687527e-09
9.711522e-09
1.955582e-08
3.827974e-08
7.284578e-08
1.347717e-07
2.424068e-07
4.238487e-07
7.203455e-07
1.189748e-06
1.909207e-06
2.975900e-06
4.504295e-06
6.618441e-06
9.438377e-06
1.306092e-05
1.753691e-05
2.284880e-05
2.889387e-05
3.547805e-05
4.232375e-05
4.909162e-05
5.541290e-05
6.092625e-05
6.531251e-05
6.832213e-05
6.979282e-05
6.965786e-05
6.794750e-05
6.478657e-05
6.039051e-05
5.506006e-05
4.917247e-05
4.316539e-05
3.750870e-05
3.266142e-05
2.901502e-05
2.683067e-05
2.618409e-05
2.693491e-05
2.873437e-05
3.107649e-05
3.338521e-05
3.511846e-05
3.586552e-05
3.541581e-05
3.378577e-05
3.120105e-05
2.803995e-05
0.000000e+00
0.000000e+00
-0.000000e+00
-0.000000e+00
-0.000000e+00
-0.000000e+00
-0.000000e+00
-7.903142e-19
3.860674e-18
3.465517e-18
-2.281951e-19
-2.447008e-18
1.018509e-18
1.018509e-18
-3.433948e-18
-2.306852e-18
-4.598872e-18
-1.852367e-18
1.842022e-18
-2.068195e-18
-2.588158e-18
4.646292e-18
1.190351e-18
3.096671e-18
2.665746e-18
3.300521e-18
-3.529972e-19
-4.404737e-18
-5.929693e-18
4.328461e-18
2.861876e-18
2.774320e-18
4.709713e-18
5.189744e-18
3.222058e-18
-2.610998e-18
-1.764448e-18
-9.355178e-19
5.835725e-18
3.837747e-18
1.365652e-18
-1.949945e-18
2.418764e-19
-1.623852e-18
2.733252e-18
2.489013e-18
5.018340e-18
5.669990e-18
-1.855539e-18
-8.133419e-18
-3.403840e-18
-5.904782e-18
-2.989342e-18
-4.378783e-18
-3.856123e-18
-4.456300e-18
-4.796901e-18
-4.762513e-18
-1.793226e-18
-5.479128e-18
-7.369522e-19
-3.839578e-18
-4.368734e-18
-4.767965e-18
1.310755e-17
4.912488e-18
-5.759569e-18
-3.635709e-18
8.208477e-18
-1.139948e-17
9.099519e-18
2.189490e-17
4.466988e-17
4.642439e-17
1.199880e-16
5.685789e-16
2.074155e-15
6.987818e-15
2.224322e-14
6.870976e-14
2.056830e-13
5.968536e-13
1.678182e-12
4.571737e-12
1.206743e-11
3.086975e-11
7.655675e-11
1.841357e-10
4.297111e-10
9.733617e-10
2.140877e-09
4.573717e-09
9.493459e-09
1.914923e-08
3.754225e-08
7.154489e-08
1.325406e-07
2.386874e-07
4.178238e-07
7.108659e-07
1.175268e-06
1.887746e-06
2.945062e-06
4.461363e-06
6.560595e-06
9.363024e-06
1.296615e-05
1.742199e-05
2.271468e-05
2.874349e-05
3.531643e-05
4.215770e-05
4.892912e-05
5.526223e-05
6.079503e-05
6.520688e-05
6.824625e-05
6.974873e-05
6.964576e-05
6.796626e-05
6.483435e-05
6.046518e-05
5.515928e-05
4.929343e-05
4.330418e-05
3.765959e-05
3.281642e-05
2.916406e-05
2.696265e-05
2.628879e-05
2.700535e-05
2.876894e-05
3.108022e-05
3.336948e-05
3.509937e-05
3.586107e-05
3.544254e-05
3.385583e-05
3.131995e-05
2.820565e-05
0.000000e+00
0.000000e+00
-0.000000e+00
-0.000000e+00
-0.000000e+00
-0.000000e+00
3.951571e-19
-1.778207e-18
6.994172e-19
-7.903142e-19
-1.702142e-18
-2.492456e-18
7.754822e-19
-2.172411e-18
-1.867199e-18
3.484159e-18
3.250249e-18
1.704966e-19
5.714947e-19
2.756541e-18
4.892470e-18
6.475930e-19
-2.586798e-18
-1.789318e-18
-5.517370e-19
-1.857188e-18
6.896002e-19
1.203048e-18
-3.231563e-18
3.073232e-18
4.635243e-18
-3.184482e-19
1.205540e-18
2.954859e-18
1.247173e-18
-3.827433e-18
-4.076988e-18
1.212710e-18
-2.066647e-18
1.684053e-18
8.174119e-20
1.825422e-18
-1.627781e-18
2.594860e-18
5.119067e-18
1.964534e-18
-1.998335e-18
-5.844572e-18
-5.004084e-18
5.367493e-19
-1.254652e-17
-4.748939e-18
9.854716e-18
8.075565e-18
-3.667657e-18
-8.969227e-18
-9.600267e-18
4.366756e-18
8.319447e-18
4.689920e-18
-1.714125e-17
-2.972212e-17
-2.999501e-18
1.358400e-17
9.393504e-18
1.127801e-17
6.209568e-18
-1.126466e-17
-2.067098e-17
6.450836e-18
1.303159e-17
3.598282e-17
2.764086e-17
4.882527e-17
8.912260e-17
3.591420e-16
1.445380e-15
5.565858e-15
1.916863e-14
6.111003e-14
1.856571e-13
5.438363e-13
1.541260e-12
4.230515e-12
1.124837e-11
2.897194e-11
7.229778e-11
1.748512e-10
4.100082e-10
9.326128e-10
2.058719e-09
4.412273e-09
9.184426e-09
1.857334e-08
3.649803e-08
6.970336e-08
1.293832e-07
2.334259e-07
4.093056e-07
6.974730e-07
1.154829e-06
1.857487e-06
2.901636e-06
4.401003e-06
6.479418e-06
9.257511e-06
1.283377e-05
1.726191e-05
2.252840e-05
2.853525e-05
3.509326e-05
4.192898e-05
4.870571e-05
5.505527e-05
6.061471e-05
6.506140e-05
6.814120e-05
6.968699e-05
6.962787e-05
6.799109e-05
6.489975e-05
6.056849e-05
5.529731e-05
4.946203e-05
4.349741e-05
3.786883e-05
3.302988e-05
2.936721e-05
2.713976e-05
2.642560e-05
2.709228e-05
2.880396e-05
3.107043e-05
3.333079e-05
3.505411e-05
3.583413e-05
3.545692e-05
3.392849e-05
3.145886e-05
2.840851e-05
0.000000e+00
0.000000e+00
-0.000000e+00
-0.000000e+00
-0.000000e+00
-0.000000e+00
-1.383050e-18
5.927357e-19
-5.152827e-18
-4.255831e-18
-1.732758e-18
-1.580628e-18
1.521301e-19
-3.357883e-18
-3.626354e-19
2.245619e-18
-2.424831e-18
4.931968e-18
-2.904785e-18
-1.327021e-19
1.880175e-18
8.938437e-19
2.063970e-19
-1.207851e-18
-1.050926e-18
3.185353e-19
1.535274e-19
1.144770e-18
1.239842e-18
4.251063e-18
3.767040e-18
3.051649e-18
-1.739223e-18
-1.476622e-18
3.682130e-18
-2.767742e-18
-3.030167e-18
-2.438458e-18
-2.432581e-18
-9.270144e-19
6.926989e-20
-1.090809e-18
1.813735e-18
-2.393153e-18
-2.518130e-18
4.466429e-18
2.425776e-19
1.770149e-18
8.916179e-20
-3.315115e-18
-6.781726e-18
-5.446416e-18
-1.105928e-18
4.477176e-18
3.348585e-20
-6.978035e-18
-8.482533e-18
9.626025e-18
1.929652e-18
-1.372715e-17
-2.035331e-17
-8.514315e-18
1.603775e-18
8.109798e-18
1.584186e-17
1.329998e-17
1.303870e-17
3.969659e-18
-2.339652e-17
-3.190274e-18
1.268873e-17
2.927565e-17
3.195311e-17
3.583062e-17
8.065978e-17
2.664527e-16
8.322065e-16
3.257080e-15
1.341257e-14
4.933232e-14
1.605429e-13
4.829300e-13
1.384509e-12
3.828441e-12
1.025050e-11
2.659657e-11
6.687004e-11
1.628985e-10
3.845324e-10
8.798795e-10
1.952479e-09
4.203737e-09
8.785556e-09
1.783020e-08
3.515020e-08
6.732511e-08
1.253028e-07
2.266221e-07
3.982846e-07
6.801389e-07
1.128370e-06
1.818318e-06
2.845441e-06
4.322937e-06
6.374514e-06
9.121306e-06
1.266311e-05
1.705585e-05
2.228895e-05
2.826792e-05
3.480702e-05
4.163568e-05
4.841894e-05
5.478893e-05
6.038153e-05
6.487171e-05
6.800225e-05
6.960287e-05
6.959989e-05
6.801850e-05
6.498043e-05
6.069932e-05
5.547415e-05
4.967910e-05
4.374630e-05
3.813758e-05
3.330257e-05
2.962456e-05
2.736123e-05
2.659272e-05
2.719258e-05
2.883455e-05
3.103997e-05
3.325909e-05
3.496929e-05
3.576785e-05
3.543885e-05
3.398104e-05
3.159339e-05
2.862346e-05
0.000000e+00
0.000000e+00
-0.000000e+00
-0.000000e+00
-0.000000e+00
-0.000000e+00
1.975786e-18
-3.572198e-18
-2.477624e-18
1.930337e-18
-4.741885e-18
-4.255831e-18
-5.227939e-18
9.424443e-19
9.673453e-19
9.851687e-19
1.359636e-18
-4.197339e-18
-1.634434e-20
-2.966194e-18
-2.811299e-18
-1.954558e-18
-3.967699e-18
1.063976e-18
-4.158973e-18
1.346780e-18
3.157404e-18
-3.385715e-19
-1.111374e-18
-2.197058e-18
8.782061e-19
-2.400677e-19
8.832385e-19
-2.277676e-19
-2.974289e-18
-1.365804e-18
-4.931081e-18
1.651008e-18
1.137032e-18
8.570369e-19
4.157763e-19
8.604423e-19
2.956233e-18
-1.571326e-18
1.107846e-18
-1.188845e-18
1.747232e-18
3.207106e-18
-1.302480e-18
3.628759e-20
-2.462205e-18
1.218942e-18
9.459939e-19
-5.265630e-19
-3.731187e-18
-2.980518e-18
3.369596e-18
-2.398769e-18
4.471258e-18
5.626932e-18
4.657390e-18
1.004596e-17
6.293880e-18
-3.308861e-18
-1.375994e-17
-5.232643e-18
-8.845118e-19
-2.008226e-18
-1.875667e-18
-4.760930e-19
7.134880e-18
2.398302e-17
1.250771e-17
2.377565e-17
9.322566e-17
2.455131e-16
6.449907e-16
1.766602e-15
6.331419e-15
2.805044e-14
1.158003e-13
4.000502e-13
1.211743e-12
3.412520e-12
9.198127e-12
2.398146e-11
6.065004e-11
1.487966e-10
3.539313e-10
8.159487e-10
1.823220e-09
3.949879e-09
8.300266e-09
1.692650e-08
3.351110e-08
6.443110e-08
1.203324e-07
2.183240e-07
3.848265e-07
6.589481e-07
1.095995e-06
1.770359e-06
2.776607e-06
4.227303e-06
6.246024e-06
8.954546e-06
1.245430e-05
1.680389e-05
2.199637e-05
2.794140e-05
3.445735e-05
4.127698e-05
4.806740e-05
5.446105e-05
6.009248e-05
6.463401e-05
6.782502e-05
6.949170e-05
6.955724e-05
6.804434e-05
6.507288e-05
6.085494e-05
5.568773e-05
4.994296e-05
4.404932e-05
3.846422e-05
3.363260e-05
2.993400e-05
2.762481e-05
2.678778e-05
2.730366e-05
2.885752e-05
3.098440e-05
3.314794e-05
3.483575e-05
3.564989e-05
3.537270e-05
3.399498e-05
3.170288e-05
2.882873e-05
0.000000e+00
0.000000e+00
-0.000000e+00
-0.000000e+00
-0.000000e+00
1.975786e-19
1.094574e-18
-3.556414e-18
4.712221e-19
3.723376e-18
1.139070e-18
2.856997e-18
8.812112e-19
3.308624e-18
4.742136e-19
2.466051e-18
-5.488397e-18
-1.327808e-18
-2.532925e-18
2.070610e-19
-4.490966e-18
-4.249663e-18
-4.145058e-18
1.252598e-18
3.128144e-18
-2.789265e-18
-4.161122e-18
-2.418186e-18
-4.006973e-18
-4.530236e-18
-1.581703e-18
-5.522010e-18
8.608276e-20
-6.779225e-19
4.279492e-18
1.038692e-18
2.080435e-18
3.901010e-18
-2.898264e-20
1.561167e-18
-3.339657e-18
4.654290e-20
1.707619e-18
3.222539e-18
4.556810e-18
1.394773e-18
-3.196435e-18
-7.879244e-18
-7.253957e-18
-5.711362e-18
4.016794e-18
1.730906e-17
1.108960e-17
2.399302e-18
3.154756e-18
-1.877149e-17
5.695620e-19
-6.535010e-18
6.778051e-18
6.047242e-18
1.025517e-17
-4.906074e-18
-1.495574e-18
-2.155546e-18
-2.187417e-18
3.768351e-18
-4.914798e-18
-1.101895e-17
-1.456015e-17
2.685224e-18
1.858269e-17
-9.565503e-19
1.795855e-18
9.372484e-18
8.848061e-17
2.706375e-16
6.441304e-16
1.591793e-15
3.841959e-15
1.133478e-14
4.965579e-14
2.369315e-13
9.220547e-13
2.915554e-12
8.165787e-12
2.148680e-11
5.444240e-11
1.339119e-10
3.201521e-10
7.432517e-10
1.673733e-09
3.653968e-09
7.733142e-09
1.587031e-08
3.159628e-08
6.105045e-08
1.145225e-07
2.086127e-07
3.690522e-07
6.340699e-07
1.057930e-06
1.713897e-06
2.695490e-06
4.114524e-06
6.094438e-06
8.757783e-06
1.220792e-05
1.650663e-05
2.165120e-05
2.755608e-05
3.404435e-05
4.085262e-05
4.765027e-05
5.407016e-05
5.974545e-05
6.434561e-05
6.760636e-05
6.935009e-05
6.949652e-05
6.806541e-05
6.517420e-05
6.103269e-05
5.593555e-05
5.025117e-05
4.440392e-05
3.884608e-05
3.401736e-05
3.029324e-05
2.792886e-05
2.701005e-05
2.742573e-05
2.887377e-05
3.090471e-05
3.299763e-05
3.465224e-05
3.547682e-05
3.525266e-05
3.396227e-05
3.177780e-05
2.901423e-05
0.000000e+00
0.000000e+00
-0.000000e+00
-0.000000e+00
-0.000000e+00
-1.383050e-18
3.951571e-18
2.370943e-18
-1.975786e-19
-3.860674e-18
-2.675203e-18
8.051462e-19
3.612884e-18
1.149682e-18
-4.317749e-18
1.064902e-18
-4.188298e-19
-2.797176e-18
1.731729e-18
-1.517235e-18
-3.029095e-18
-1.894020e-18
2.821182e-18
3.791005e-18
-4.983688e-18
-8.792442e-19
-4.308280e-18
4.557053e-18
-1.195019e-18
-2.662821e-18
-1.307234e-18
4.975771e-19
-4.346365e-18
1.314360e-18
6.883576e-19
3.219873e-18
-1.927797e-18
2.069707e-18
-2.205184e-18
-4.369697e-18
-1.439612e-18
2.400791e-18
6.096529e-18
-8.684874e-19
3.002406e-19
-4.751960e-18
4.263151e-18
3.801323e-18
-1.172910e-18
-1.566356e-18
-1.928797e-18
3.981229e-18
5.947272e-18
9.169880e-18
2.344877e-18
4.275196e-18
4.549666e-18
-1.159816e-17
-8.559333e-19
1.281342e-18
3.915938e-18
2.139080e-19
2.594094e-18
-2.018848e-17
-1.066314e-17
2.426206e-17
2.227948e-17
1.326980e-17
8.892802e-18
1.906854e-17
1.234999e-17
2.611979e-17
1.042902e-17
1.850432e-17
8.980667e-17
2.688425e-16
6.973099e-16
1.757771e-15
4.061348e-15
8.815650e-15
2.045842e-14
7.431324e-14
4.006582e-13
1.879343e-12
6.594683e-12
1.891052e-11
4.897356e-11
1.205451e-10
2.875723e-10
6.683292e-10
1.512241e-09
3.324976e-09
7.093104e-09
1.467101e-08
2.941901e-08
5.720794e-08
1.079217e-07
1.975763e-07
3.511067e-07
6.057232e-07
1.014479e-06
1.649336e-06
2.602591e-06
3.985202e-06
5.920444e-06
8.531766e-06
1.192476e-05
1.616481e-05
2.125404e-05
2.711235e-05
3.356812e-05
4.036227e-05
4.716679e-05
5.361511e-05
5.933892e-05
6.400475e-05
6.734445e-05
6.917631e-05
6.941616e-05
6.808033e-05
6.528317e-05
6.123146e-05
5.621649e-05
5.060255e-05
4.480896e-05
3.928232e-05
3.445667e-05
3.070327e-05
2.827607e-05
2.726435e-05
2.756589e-05
2.889241e-05
3.081150e-05
3.281936e-05
3.442965e-05
3.525844e-05
3.508695e-05
3.388966e-05
3.182394e-05
2.918583e-05
0.000000e+00
0.000000e+00
-0.000000e+00
3.951571e-19
-1.975786e-19
-1.489731e-18
2.173364e-18
-3.541582e-18
1.483197e-20
-4.103701e-18
-0.000000e+00
-2.221670e-18
3.724872e-18
2.299365e-18
-2.124790e-18
-2.741734e-18
-5.317667e-18
8.663946e-19
-5.228320e-19
4.711190e-18
4.915219e-18
4.684933e-18
2.252990e-18
1.982909e-18
-8.324814e-19
3.101851e-18
1.158522e-18
-2.549784e-18
2.831140e-18
-1.573406e-18
2.615466e-19
4.887267e-18
4.579358e-18
2.595183e-18
2.630009e-19
-3.135115e-18
-3.020207e-18
-1.401971e-18
-6.019968e-20
-2.918493e-18
4.990671e-19
2.493904e-18
-3.028615e-18
1.592877e-18
1.579802e-18
-6.270299e-18
3.251275e-18
5.739782e-18
5.049809e-18
-9.292326e-18
-5.660332e-18
-8.378574e-18
-3.905225e-18
5.279583e-18
5.628897e-19
1.423091e-17
5.784362e-18
-1.122967e-17
-7.578205e-18
1.290578e-17
2.720916e-17
-3.469508e-18
-3.301627e-17
-3.093708e-17
-9.398687e-18
5.083481e-18
3.397918e-17
8.974770e-18
-2.290731e-18
-4.467882e-19
1.335335e-17
1.321080e-17
9.646235e-18
5.505226e-17
8.402944e-17
2.620649e-16
7.025667e-16
1.854905e-15
4.586892e-15
1.047361e-14
2.154785e-14
4.079979e-14
1.006905e-13
5.320890e-13
3.185214e-12
1.347857e-11
4.178352e-11
1.088177e-10
2.614352e-10
6.036741e-10
1.359126e-09
2.989548e-09
6.409198e-09
1.335513e-08
2.700013e-08
5.292136e-08
1.005566e-07
1.852723e-07
3.311086e-07
5.741186e-07
9.659727e-07
1.577135e-06
2.498502e-06
3.840039e-06
5.724822e-06
8.277298e-06
1.160555e-05
1.577903e-05
2.080525e-05
2.661022e-05
3.302828e-05
3.980518e-05
4.661592e-05
5.309467e-05
5.887173e-05
6.361054e-05
6.703884e-05
6.897043e-05
6.931678e-05
6.809017e-05
6.540119e-05
6.145285e-05
5.653234e-05
5.099914e-05
4.526704e-05
3.977648e-05
3.495565e-05
3.117145e-05
2.867669e-05
2.756425e-05
2.774117e-05
2.893375e-05
3.072761e-05
3.263755e-05
3.419279e-05
3.501886e-05
3.489826e-05
3.379808e-05
3.186077e-05
2.936228e-05
0.000000e+00
0.000000e+00
-0.000000e+00
-1.185471e-18
9.878928e-19
1.778207e-18
-2.884755e-19
1.185471e-18
-1.702142e-18
-2.203981e-18
1.016604e-18
2.726910e-18
3.181938e-18
-1.984768e-18
-3.106442e-19
1.082809e-18
5.040805e-18
-2.623957e-18
-5.200868e-18
-1.486190e-18
9.352707e-19
4.187716e-18
2.312181e-18
1.837030e-18
3.836054e-18
-6.901351e-20
-3.619074e-18
4.140432e-18
5.146804e-18
2.625161e-18
3.441297e-18
-6.738865e-20
3.767099e-18
-1.519052e-18
-6.300181e-18
-2.618399e-18
-6.301804e-19
1.274828e-18
3.709971e-18
-1.372466e-18
-1.351811e-18
1.545677e-18
-1.396241e-18
2.181753e-18
1.316243e-18
-7.727361e-19
-3.892082e-18
5.608999e-19
-1.183552e-17
-6.074325e-18
-3.332084e-18
9.780238e-19
-9.139208e-18
1.816001e-18
4.046422e-18
1.140500e-17
-1.400444e-17
3.414314e-18
3.734364e-18
-4.293348e-19
1.522821e-17
-1.412707e-17
-5.350295e-18
-5.569521e-18
-3.500868e-18
6.016325e-18
1.693946e-17
-4.008301e-18
-1.561607e-17
-8.884318e-18
5.762683e-18
3.534326e-18
1.028061e-18
3.249573e-17
1.052355e-16
2.536162e-16
6.961624e-16
1.890953e-15
4.815521e-15
1.168768e-14
2.654621e-14
5.404562e-14
9.315672e-14
1.465607e-13
5.261581e-13
4.146439e-12
2.345074e-11
8.533970e-11
2.335207e-10
5.559310e-10
1.244759e-09
2.705786e-09
5.763287e-09
1.201584e-08
2.442578e-08
4.825207e-08
9.245683e-08
1.717131e-07
3.090907e-07
5.393658e-07
9.126548e-07
1.497717e-06
2.383833e-06
3.679801e-06
5.508424e-06
7.995212e-06
1.125099e-05