# vtk DataFile Version 3.0
Resultado Projeto 3
ASCII
DATASET STRUCTURED_GRID
DIMENSIONS 70 30 1 
POINTS 2100 double
0.000000e+00 0.000000e+00 0.000000e+00
5.072464e-02 0.000000e+00 0.000000e+00
1.014493e-01 0.000000e+00 0.000000e+00
1.521739e-01 0.000000e+00 0.000000e+00
2.028986e-01 0.000000e+00 0.000000e+00
2.536232e-01 0.000000e+00 0.000000e+00
3.043478e-01 0.000000e+00 0.000000e+00
3.550725e-01 0.000000e+00 0.000000e+00
4.057971e-01 0.000000e+00 0.000000e+00
4.565217e-01 0.000000e+00 0.000000e+00
5.072464e-01 0.000000e+00 0.000000e+00
5.579710e-01 0.000000e+00 0.000000e+00
6.086957e-01 0.000000e+00 0.000000e+00
6.594203e-01 0.000000e+00 0.000000e+00
7.101449e-01 0.000000e+00 0.000000e+00
7.608696e-01 0.000000e+00 0.000000e+00
8.115942e-01 0.000000e+00 0.000000e+00
8.623188e-01 0.000000e+00 0.000000e+00
9.130435e-01 0.000000e+00 0.000000e+00
9.637681e-01 0.000000e+00 0.000000e+00
1.014493e+00 0.000000e+00 0.000000e+00
1.065217e+00 0.000000e+00 0.000000e+00
1.115942e+00 0.000000e+00 0.000000e+00
1.166667e+00 0.000000e+00 0.000000e+00
1.217391e+00 0.000000e+00 0.000000e+00
1.268116e+00 0.000000e+00 0.000000e+00
1.318841e+00 0.000000e+00 0.000000e+00
1.369565e+00 0.000000e+00 0.000000e+00
1.420290e+00 0.000000e+00 0.000000e+00
1.471014e+00 0.000000e+00 0.000000e+00
1.521739e+00 0.000000e+00 0.000000e+00
1.572464e+00 0.000000e+00 0.000000e+00
1.623188e+00 0.000000e+00 0.000000e+00
1.673913e+00 0.000000e+00 0.000000e+00
1.724638e+00 0.000000e+00 0.000000e+00
1.775362e+00 0.000000e+00 0.000000e+00
1.826087e+00 0.000000e+00 0.000000e+00
1.876812e+00 0.000000e+00 0.000000e+00
1.927536e+00 0.000000e+00 0.000000e+00
1.978261e+00 0.000000e+00 0.000000e+00
2.028986e+00 0.000000e+00 0.000000e+00
2.079710e+00 0.000000e+00 0.000000e+00
2.130435e+00 0.000000e+00 0.000000e+00
2.181159e+00 0.000000e+00 0.000000e+00
2.231884e+00 0.000000e+00 0.000000e+00
2.282609e+00 0.000000e+00 0.000000e+00
2.333333e+00 0.000000e+00 0.000000e+00
2.384058e+00 0.000000e+00 0.000000e+00
2.434783e+00 0.000000e+00 0.000000e+00
2.485507e+00 0.000000e+00 0.000000e+00
2.536232e+00 0.000000e+00 0.000000e+00
2.586957e+00 0.000000e+00 0.000000e+00
2.637681e+00 0.000000e+00 0.000000e+00
2.688406e+00 0.000000e+00 0.000000e+00
2.739130e+00 0.000000e+00 0.000000e+00
2.789855e+00 0.000000e+00 0.000000e+00
2.840580e+00 0.000000e+00 0.000000e+00
2.891304e+00 0.000000e+00 0.000000e+00
2.942029e+00 0.000000e+00 0.000000e+00
2.992754e+00 0.000000e+00 0.000000e+00
3.043478e+00 0.000000e+00 0.000000e+00
3.094203e+00 0.000000e+00 0.000000e+00
3.144928e+00 0.000000e+00 0.000000e+00
3.195652e+00 0.000000e+00 0.000000e+00
3.246377e+00 0.000000e+00 0.000000e+00
3.297101e+00 0.000000e+00 0.000000e+00
3.347826e+00 0.000000e+00 0.000000e+00
3.398551e+00 0.000000e+00 0.000000e+00
3.449275e+00 0.000000e+00 0.000000e+00
3.500000e+00 0.000000e+00 0.000000e+00
0.000000e+00 3.448276e-02 0.000000e+00
5.072464e-02 3.448276e-02 0.000000e+00
1.014493e-01 3.448276e-02 0.000000e+00
1.521739e-01 3.448276e-02 0.000000e+00
2.028986e-01 3.448276e-02 0.000000e+00
2.536232e-01 3.448276e-02 0.000000e+00
3.043478e-01 3.448276e-02 0.000000e+00
3.550725e-01 3.448276e-02 0.000000e+00
4.057971e-01 3.448276e-02 0.000000e+00
4.565217e-01 3.448276e-02 0.000000e+00
5.072464e-01 3.448276e-02 0.000000e+00
5.579710e-01 3.448276e-02 0.000000e+00
6.086957e-01 3.448276e-02 0.000000e+00
6.594203e-01 3.448276e-02 0.000000e+00
7.101449e-01 3.448276e-02 0.000000e+00
7.608696e-01 3.448276e-02 0.000000e+00
8.115942e-01 3.448276e-02 0.000000e+00
8.623188e-01 3.448276e-02 0.000000e+00
9.130435e-01 3.448276e-02 0.000000e+00
9.637681e-01 3.448276e-02 0.000000e+00
1.014493e+00 3.448276e-02 0.000000e+00
1.065217e+00 3.448276e-02 0.000000e+00
1.115942e+00 3.448276e-02 0.000000e+00
1.166667e+00 3.448276e-02 0.000000e+00
1.217391e+00 3.448276e-02 0.000000e+00
1.268116e+00 3.448276e-02 0.000000e+00
1.318841e+00 3.448276e-02 0.000000e+00
1.369565e+00 3.448276e-02 0.000000e+00
1.420290e+00 3.448276e-02 0.000000e+00
1.471014e+00 3.448276e-02 0.000000e+00
1.521739e+00 3.448276e-02 0.000000e+00
1.572464e+00 3.448276e-02 0.000000e+00
1.623188e+00 3.448276e-02 0.000000e+00
1.673913e+00 3.448276e-02 0.000000e+00
1.724638e+00 3.448276e-02 0.000000e+00
1.775362e+00 3.448276e-02 0.000000e+00
1.826087e+00 3.448276e-02 0.000000e+00
1.876812e+00 3.448276e-02 0.000000e+00
1.927536e+00 3.448276e-02 0.000000e+00
1.978261e+00 3.448276e-02 0.000000e+00
2.028986e+00 3.448276e-02 0.000000e+00
2.079710e+00 3.448276e-02 0.000000e+00
2.130435e+00 3.448276e-02 0.000000e+00
2.181159e+00 3.448276e-02 0.000000e+00
2.231884e+00 3.448276e-02 0.000000e+00
2.282609e+00 3.448276e-02 0.000000e+00
2.333333e+00 3.448276e-02 0.000000e+00
2.384058e+00 3.448276e-02 0.000000e+00
2.434783e+00 3.448276e-02 0.000000e+00
2.485507e+00 3.448276e-02 0.000000e+00
2.536232e+00 3.448276e-02 0.000000e+00
2.586957e+00 3.448276e-02 0.000000e+00
2.637681e+00 3.448276e-02 0.000000e+00
2.688406e+00 3.448276e-02 0.000000e+00
2.739130e+00 3.448276e-02 0.000000e+00
2.789855e+00 3.448276e-02 0.000000e+00
2.840580e+00 3.448276e-02 0.000000e+00
2.891304e+00 3.448276e-02 0.000000e+00
2.942029e+00 3.448276e-02 0.000000e+00
2.992754e+00 3.448276e-02 0.000000e+00
3.043478e+00 3.448276e-02 0.000000e+00
3.094203e+00 3.448276e-02 0.000000e+00
3.144928e+00 3.448276e-02 0.000000e+00
3.195652e+00 3.448276e-02 0.000000e+00
3.246377e+00 3.448276e-02 0.000000e+00
3.297101e+00 3.448276e-02 0.000000e+00
3.347826e+00 3.448276e-02 0.000000e+00
3.398551e+00 3.448276e-02 0.000000e+00
3.449275e+00 3.448276e-02 0.000000e+00
3.500000e+00 3.448276e-02 0.000000e+00
0.000000e+00 6.896552e-02 0.000000e+00
5.072464e-02 6.896552e-02 0.000000e+00
1.014493e-01 6.896552e-02 0.000000e+00
1.521739e-01 6.896552e-02 0.000000e+00
2.028986e-01 6.896552e-02 0.000000e+00
2.536232e-01 6.896552e-02 0.000000e+00
3.043478e-01 6.896552e-02 0.000000e+00
3.550725e-01 6.896552e-02 0.000000e+00
4.057971e-01 6.896552e-02 0.000000e+00
4.565217e-01 6.896552e-02 0.000000e+00
5.072464e-01 6.896552e-02 0.000000e+00
5.579710e-01 6.896552e-02 0.000000e+00
6.086957e-01 6.896552e-02 0.000000e+00
6.594203e-01 6.896552e-02 0.000000e+00
7.101449e-01 6.896552e-02 0.000000e+00
7.608696e-01 6.896552e-02 0.000000e+00
8.115942e-01 6.896552e-02 0.000000e+00
8.623188e-01 6.896552e-02 0.000000e+00
9.130435e-01 6.896552e-02 0.000000e+00
9.637681e-01 6.896552e-02 0.000000e+00
1.014493e+00 6.896552e-02 0.000000e+00
1.065217e+00 6.896552e-02 0.000000e+00
1.115942e+00 6.896552e-02 0.000000e+00
1.166667e+00 6.896552e-02 0.000000e+00
1.217391e+00 6.896552e-02 0.000000e+00
1.268116e+00 6.896552e-02 0.000000e+00
1.318841e+00 6.896552e-02 0.000000e+00
1.369565e+00 6.896552e-02 0.000000e+00
1.420290e+00 6.896552e-02 0.000000e+00
1.471014e+00 6.896552e-02 0.000000e+00
1.521739e+00 6.896552e-02 0.000000e+00
1.572464e+00 6.896552e-02 0.000000e+00
1.623188e+00 6.896552e-02 0.000000e+00
1.673913e+00 6.896552e-02 0.000000e+00
1.724638e+00 6.896552e-02 0.000000e+00
1.775362e+00 6.896552e-02 0.000000e+00
1.826087e+00 6.896552e-02 0.000000e+00
1.876812e+00 6.896552e-02 0.000000e+00
1.927536e+00 6.896552e-02 0.000000e+00
1.978261e+00 6.896552e-02 0.000000e+00
2.028986e+00 6.896552e-02 0.000000e+00
2.079710e+00 6.896552e-02 0.000000e+00
2.130435e+00 6.896552e-02 0.000000e+00
2.181159e+00 6.896552e-02 0.000000e+00
2.231884e+00 6.896552e-02 0.000000e+00
2.282609e+00 6.896552e-02 0.000000e+00
2.333333e+00 6.896552e-02 0.000000e+00
2.384058e+00 6.896552e-02 0.000000e+00
2.434783e+00 6.896552e-02 0.000000e+00
2.485507e+00 6.896552e-02 0.000000e+00
2.536232e+00 6.896552e-02 0.000000e+00
2.586957e+00 6.896552e-02 0.000000e+00
2.637681e+00 6.896552e-02 0.000000e+00
2.688406e+00 6.896552e-02 0.000000e+00
2.739130e+00 6.896552e-02 0.000000e+00
2.789855e+00 6.896552e-02 0.000000e+00
2.840580e+00 6.896552e-02 0.000000e+00
2.891304e+00 6.896552e-02 0.000000e+00
2.942029e+00 6.896552e-02 0.000000e+00
2.992754e+00 6.896552e-02 0.000000e+00
3.043478e+00 6.896552e-02 0.000000e+00
3.094203e+00 6.896552e-02 0.000000e+00
3.144928e+00 6.896552e-02 0.000000e+00
3.195652e+00 6.896552e-02 0.000000e+00
3.246377e+00 6.896552e-02 0.000000e+00
3.297101e+00 6.896552e-02 0.000000e+00
3.347826e+00 6.896552e-02 0.000000e+00
3.398551e+00 6.896552e-02 0.000000e+00
3.449275e+00 6.896552e-02 0.000000e+00
3.500000e+00 6.896552e-02 0.000000e+00
0.000000e+00 1.034483e-01 0.000000e+00
5.072464e-02 1.034483e-01 0.000000e+00
1.014493e-01 1.034483e-01 0.000000e+00
1.521739e-01 1.034483e-01 0.000000e+00
2.028986e-01 1.034483e-01 0.000000e+00
2.536232e-01 1.034483e-01 0.000000e+00
3.043478e-01 1.034483e-01 0.000000e+00
3.550725e-01 1.034483e-01 0.000000e+00
4.057971e-01 1.034483e-01 0.000000e+00
4.565217e-01 1.034483e-01 0.000000e+00
5.072464e-01 1.034483e-01 0.000000e+00
5.579710e-01 1.034483e-01 0.000000e+00
6.086957e-01 1.034483e-01 0.000000e+00
6.594203e-01 1.034483e-01 0.000000e+00
7.101449e-01 1.034483e-01 0.000000e+00
7.608696e-01 1.034483e-01 0.000000e+00
8.115942e-01 1.034483e-01 0.000000e+00
8.623188e-01 1.034483e-01 0.000000e+00
9.130435e-01 1.034483e-01 0.000000e+00
9.637681e-01 1.034483e-01 0.000000e+00
1.014493e+00 1.034483e-01 0.000000e+00
1.065217e+00 1.034483e-01 0.000000e+00
1.115942e+00 1.034483e-01 0.000000e+00
1.166667e+00 1.034483e-01 0.000000e+00
1.217391e+00 1.034483e-01 0.000000e+00
1.268116e+00 1.034483e-01 0.000000e+00
1.318841e+00 1.034483e-01 0.000000e+00
1.369565e+00 1.034483e-01 0.000000e+00
1.420290e+00 1.034483e-01 0.000000e+00
1.471014e+00 1.034483e-01 0.000000e+00
1.521739e+00 1.034483e-01 0.000000e+00
1.572464e+00 1.034483e-01 0.000000e+00
1.623188e+00 1.034483e-01 0.000000e+00
1.673913e+00 1.034483e-01 0.000000e+00
1.724638e+00 1.034483e-01 0.000000e+00
1.775362e+00 1.034483e-01 0.000000e+00
1.826087e+00 1.034483e-01 0.000000e+00
1.876812e+00 1.034483e-01 0.000000e+00
1.927536e+00 1.034483e-01 0.000000e+00
1.978261e+00 1.034483e-01 0.000000e+00
2.028986e+00 1.034483e-01 0.000000e+00
2.079710e+00 1.034483e-01 0.000000e+00
2.130435e+00 1.034483e-01 0.000000e+00
[...]
POINT_DATA 2100
SCALARS RES_Cont double
LOOKUP_TABLE default
0.000000e+00
0.000000e+00
0.000000e+00
0.000000e+00
0.000000e+00
0.000000e+00
0.000000e+00
0.000000e+00
0.000000e+00
0.000000e+00
0.000000e+00
0.000000e+00
0.000000e+00
0.000000e+00
0.000000e+00
0.000000e+00
0.000000e+00
0.000000e+00
0.000000e+00
0.000000e+00
0.000000e+00
0.000000e+00
0.000000e+00
0.000000e+00
0.000000e+00
0.000000e+00
0.000000e+00
0.000000e+00
0.000000e+00
0.000000e+00
0.000000e+00
0.000000e+00
0.000000e+00
0.000000e+00
0.000000e+00
0.000000e+00
0.000000e+00
0.000000e+00
0.000000e+00
0.000000e+00
0.000000e+00
0.000000e+00
0.000000e+00
0.000000e+00
0.000000e+00
0.000000e+00
0.000000e+00
0.000000e+00
0.000000e+00
0.000000e+00
0.000000e+00
0.000000e+00
0.000000e+00
0.000000e+00
0.000000e+00
0.000000e+00
0.000000e+00
0.000000e+00
0.000000e+00
0.000000e+00
0.000000e+00
0.000000e+00
0.000000e+00
0.000000e+00
0.000000e+00
0.000000e+00
0.000000e+00
0.000000e+00
0.000000e+00
0.000000e+00
0.000000e+00
4.698404e-18
6.786609e-18
5.173018e-18
2.851350e-18
5.869046e-18
1.498559e-18
2.503267e-18
5.831173e-18
5.140845e-18
6.206192e-18
2.043262e-18
2.533669e-18
3.753117e-18
2.517636e-18
2.238900e-18
4.207800e-18
4.040299e-18
3.061350e-18
4.906112e-18
5.941690e-18
-8.200497e-19
-7.899131e-19
3.383980e-18
6.366956e-18
6.088947e-18
6.910098e-18
2.606169e-18
4.979692e-18
3.602392e-18
-2.136055e-18
2.969213e-18
2.103849e-17
8.053283e-17
3.036731e-16
1.215910e-15
4.473994e-15
1.591796e-14
5.435963e-14
1.782869e-13
5.610138e-13
1.692341e-12
4.889662e-12
1.352843e-11
3.584483e-11
9.099438e-11
2.214777e-10
5.173442e-10
1.160997e-09
2.506039e-09
5.209176e-09
1.043991e-08
2.019689e-08
3.775997e-08
6.829981e-08
1.196490e-07
2.032079e-07
3.349154e-07
5.361612e-07
8.344650e-07
1.263709e-06
1.863701e-06
2.678870e-06
3.756009e-06
5.141073e-06
6.875239e-06
8.990598e-06
1.150595e-05
1.442330e-05
0.000000e+00
0.000000e+00
2.096617e-18
2.081499e-18
2.893700e-18
4.780355e-18
3.935137e-18
5.581655e-18
3.333714e-18
-2.599237e-19
7.329527e-19
2.528172e-18
-9.802952e-21
1.848333e-18
7.505616e-19
7.744413e-19
7.140498e-19
9.816012e-19
3.329467e-18
2.902073e-18
4.640742e-18
2.206855e-18
6.237446e-18
5.469984e-18
5.108234e-18
3.530036e-18
6.174610e-18
5.533408e-18
4.810994e-18
4.741720e-18
1.476132e-18
2.798118e-18
1.817542e-18
1.194487e-17
7.213056e-17
3.007336e-16
1.147883e-15
4.245315e-15
1.508773e-14
5.165885e-14
1.699351e-13
5.367716e-13
1.625420e-12
4.714491e-12
1.309162e-11
3.480580e-11
8.863123e-11
2.163282e-10
5.065731e-10
1.139330e-09
2.464051e-09
5.130659e-09
1.029801e-08
1.994871e-08
3.733939e-08
6.760838e-08
1.185452e-07
2.014954e-07
3.323310e-07
5.323651e-07
8.290348e-07
1.256140e-06
1.853414e-06
2.665235e-06
3.738374e-06
5.118806e-06
6.847784e-06
8.957525e-06
1.146702e-05
1.437847e-05
0.000000e+00
0.000000e+00
5.352912e-18
1.331129e-18
5.073073e-18
6.588508e-18
4.361507e-18
1.821834e-18
5.339137e-18
2.962163e-18
2.643731e-19
-6.153960e-18
5.049237e-18
-5.881793e-19
-1.160237e-18
-5.382241e-18
3.262295e-18
-1.770983e-18
5.366387e-18
1.852226e-18
1.903126e-18
1.377064e-18
9.318898e-19
6.202541e-18
9.331609e-19
4.468013e-18
5.451241e-18
4.973037e-18
4.086450e-18
1.639427e-18
1.069196e-17
4.622378e-18
4.971002e-18
1.297268e-17
6.376305e-17
2.768757e-16
1.063861e-15
3.836843e-15
1.368733e-14
4.701682e-14
1.554510e-13
4.941107e-13
1.506776e-12
4.401698e-12
1.230815e-11
3.293619e-11
8.437090e-11
2.070359e-10
4.871310e-10
1.100230e-09
2.388323e-09
4.989170e-09
1.004258e-08
1.950252e-08
3.658422e-08
6.636868e-08
1.165691e-07
1.984343e-07
3.277191e-07
5.256023e-07
8.193768e-07
1.242700e-06
1.835181e-06
2.641109e-06
3.707223e-06
5.079544e-06
6.799456e-06
8.899409e-06
1.139871e-05
1.429998e-05
0.000000e+00
0.000000e+00
1.538739e-18
-1.590033e-19
-1.431363e-18
3.662899e-19
-5.058492e-19
5.011776e-18
4.998744e-18
3.566265e-18
4.687370e-18
5.182287e-18
4.325171e-18
4.575802e-19
3.770726e-18
1.830373e-18
5.482446e-18
1.578792e-18
5.055660e-18
2.530757e-19
-2.328875e-18
3.160376e-18
4.986520e-18
6.938235e-18
-3.006013e-18
4.231330e-18
2.690755e-18
3.269755e-18
2.787529e-18
1.069341e-17
-1.155632e-18
-1.491086e-18
5.652497e-18
9.173768e-18
5.822253e-17
2.396744e-16
9.306971e-16
3.390741e-15
1.198685e-14
4.112849e-14
1.366927e-13
4.377908e-13
1.347363e-12
3.975154e-12
1.122656e-11
3.033013e-11
7.838770e-11
1.939115e-10
4.595561e-10
1.044605e-09
2.280361e-09
4.787162e-09
9.677566e-09
1.886459e-08
3.550443e-08
6.459630e-08
1.137450e-07
1.940619e-07
3.211358e-07
5.159562e-07
8.056131e-07
1.223565e-06
1.809246e-06
2.606826e-06
3.663005e-06
5.023869e-06
6.731001e-06
8.817178e-06
1.130217e-05
1.418916e-05
0.000000e+00
0.000000e+00
6.251482e-18
3.966224e-18
5.482635e-18
-1.597105e-19
2.551800e-18
3.601318e-18
4.091750e-18
5.828741e-18
6.206694e-19
1.932293e-18
4.989106e-18
5.353767e-18
-8.361261e-19
2.868982e-18
-4.387217e-18
2.596153e-18
2.075235e-18
2.551679e-18
-2.532439e-18
1.581189e-18
5.599848e-18
-2.681461e-18
4.883413e-18
-1.060318e-18
4.906509e-18
2.952807e-18
7.900376e-18
6.606566e-18
1.209881e-17
6.817774e-18
2.668768e-18
1.212646e-17
6.816090e-17
2.282975e-16
8.002816e-16
2.897852e-15
1.013334e-14
3.475248e-14
1.158172e-13
3.735295e-13
1.161149e-12
3.466268e-12
9.912073e-12
2.711313e-11
7.090754e-11
1.773384e-10
4.244653e-10
9.734056e-10
2.141570e-09
4.526651e-09
9.205778e-09
1.803877e-08
3.410510e-08
6.229795e-08
1.100817e-07
1.883896e-07
3.125964e-07
5.034470e-07
7.877711e-07
1.198771e-06
1.775662e-06
2.562459e-06
3.605816e-06
4.951914e-06
6.642590e-06
8.711054e-06
1.117767e-05
1.404634e-05
0.000000e+00
0.000000e+00
4.717546e-18
3.467485e-18
6.681851e-20
-4.064253e-18
2.886442e-18
2.388252e-18
3.287781e-18
4.852738e-18
8.740456e-19
3.077198e-18
4.248222e-18
2.071970e-18
3.142212e-18
2.464327e-18
-5.668021e-19
3.117936e-18
3.422554e-18
3.586072e-18
4.784450e-18
4.991768e-18
3.657223e-18
3.175087e-18
5.793125e-18
3.272552e-18
3.611006e-18
7.081787e-18
5.949671e-18
5.638444e-18
-7.819533e-18
1.151348e-17
1.079057e-17
8.299829e-18
3.788405e-17
1.955893e-16
6.887327e-16
2.420278e-15
8.395517e-15
2.853842e-14
9.493583e-14
3.075212e-13
9.646005e-13
2.914624e-12
8.451931e-12
2.346163e-11
6.225969e-11
1.578875e-10
3.827866e-10
8.880583e-10
1.974050e-09
4.210620e-09
8.631345e-09
1.703066e-08
3.239382e-08
5.948378e-08
1.055925e-07
1.814353e-07
3.021245e-07
4.881063e-07
7.658922e-07
1.168374e-06
1.734498e-06
2.508098e-06
3.535774e-06
4.863826e-06
6.534409e-06
8.581262e-06
1.102548e-05
1.387185e-05
0.000000e+00
0.000000e+00
3.056737e-18
9.284239e-19
2.973934e-18
3.867695e-18
2.230970e-18
1.182421e-18
1.402770e-18
4.335994e-18
2.189548e-18
3.818777e-18
3.698673e-18
5.368563e-18
4.726235e-18
1.325912e-18
3.917689e-18
-7.695820e-19
2.856814e-18
7.298859e-19
4.261812e-18
4.145694e-18
3.583216e-18
4.734341e-18
3.274253e-19
-1.806620e-18
1.318449e-17
9.923244e-18
-2.489302e-18
-3.329622e-18
5.759944e-18
-8.368392e-20
5.199317e-18
1.134109e-17
5.254069e-17
1.452682e-16
6.060776e-16
2.003334e-15
6.864444e-15
2.295879e-14
7.582384e-14
2.454316e-13
7.740584e-13
2.363568e-12
6.950010e-12
1.960202e-11
5.289368e-11
1.363765e-10
3.358914e-10
7.907030e-10
1.780942e-09
3.843460e-09
7.960221e-09
1.584821e-08
3.038118e-08
5.616804e-08
1.002970e-07
1.732258e-07
2.897571e-07
4.699848e-07
7.400457e-07
1.132466e-06
1.685877e-06
2.443901e-06
3.453080e-06
4.759855e-06
6.406762e-06
8.428165e-06
1.084602e-05
1.366617e-05
0.000000e+00
0.000000e+00
-1.416097e-18
6.251411e-18
6.805284e-18
5.130809e-18
2.410713e-19
3.471587e-18
5.617729e-19
4.865447e-18
4.060368e-18
3.174981e-19
4.713289e-18
2.550337e-18
1.523278e-18
3.968320e-18
3.847971e-18
-1.762782e-18
4.014676e-18
3.491090e-18
-5.691378e-19
1.955097e-18
1.469913e-18
6.224507e-18
6.738174e-18
3.628375e-18
9.930810e-18
7.639623e-18
8.663161e-18
4.092991e-18
8.289158e-18
1.107419e-17
1.344525e-17
2.776788e-18
4.624608e-17
1.547356e-16
5.028726e-16
1.700991e-15
5.603458e-15
1.832913e-14
5.955628e-14
1.912751e-13
6.029929e-13
1.853061e-12
5.513059e-12
1.579048e-11
4.336449e-11
1.138922e-10
2.857139e-10
6.844844e-10
1.566950e-09
3.431726e-09
7.201020e-09
1.450234e-08
2.808085e-08
5.236821e-08
9.421838e-08
1.637933e-07
2.755401e-07
4.491483e-07
7.103253e-07
1.091178e-06
1.629980e-06
2.370108e-06
3.358042e-06
4.640389e-06
6.260122e-06
8.252329e-06
1.063995e-05
1.343003e-05
0.000000e+00
0.000000e+00
3.921465e-18
5.888766e-18
2.370275e-18
4.167021e-18
3.445834e-18
5.296600e-18
2.555416e-18
2.943445e-18
5.500543e-18
-2.782929e-18
2.145511e-18
-2.580960e-19
1.903176e-18
5.610009e-18
6.240877e-18
-1.257215e-18
1.461584e-18
1.789113e-18
2.118718e-18
5.392118e-18
2.786252e-18
1.809037e-18
4.456376e-18
5.631903e-18
4.487630e-18
6.502165e-18
4.012141e-18
9.801984e-18
7.973945e-18
1.387076e-17
1.809628e-18
2.359038e-18
3.935520e-17
1.288350e-16
4.430389e-16
1.427144e-15
4.611579e-15
1.464557e-14
4.651624e-14
1.469754e-13
4.596235e-13
1.412319e-12
4.231203e-12
1.227270e-11
3.426719e-11
9.172386e-11
2.347593e-10
5.737870e-10
1.339015e-09
2.985395e-09
6.366872e-09
1.300903e-08
2.551126e-08
4.810505e-08
8.738085e-08
1.531687e-07
2.595169e-07
4.256625e-07
6.768317e-07
1.044663e-06
1.567025e-06
2.287028e-06
3.251076e-06
4.505969e-06
6.095171e-06
8.054581e-06
1.040825e-05
1.316456e-05
0.000000e+00
0.000000e+00
-7.838754e-19
3.178135e-18
-1.912233e-18
2.458750e-18
8.661777e-19
3.891148e-19
-1.189645e-18
1.775322e-18
4.510852e-18
5.973491e-18
-4.655823e-19
4.079674e-18
4.516404e-18
4.944232e-18
8.922821e-19
2.436307e-18
2.846963e-18
-2.853096e-18
5.721613e-18
8.199781e-19
7.899575e-18
3.303598e-18
8.288924e-18
3.659507e-18
3.837496e-18
-5.855036e-18
6.538581e-18
7.306201e-18
9.671613e-18
4.378262e-18
9.396435e-18
1.009877e-17
2.936377e-17
1.283966e-16
3.793982e-16
1.203554e-15
3.806619e-15
1.181892e-14
3.646198e-14
1.125918e-13
3.463255e-13
1.055302e-12
3.161186e-12
9.235996e-12
2.613076e-11
7.117663e-11
1.858742e-10
4.641312e-10
1.106692e-09
2.519270e-09
5.478322e-09
1.139385e-08
2.270089e-08
4.340717e-08
7.981098e-08
1.413766e-07
2.417153e-07
3.995690e-07
6.396380e-07
9.930480e-07
1.497229e-06
2.194994e-06
3.132672e-06
4.357270e-06
5.912796e-06
7.836042e-06
1.015227e-05
1.287137e-05
0.000000e+00
0.000000e+00
-1.891593e-18
1.750176e-19
2.619915e-19
3.805045e-18
1.474318e-18
-1.407207e-18
3.644867e-18
6.916770e-18
1.927897e-18
1.862314e-18
3.036962e-18
-1.093664e-18
4.822787e-18
4.218356e-18
-7.309926e-19
-1.627216e-18
-8.154600e-19
3.598212e-18
1.640982e-18
7.411293e-18
5.124699e-18
3.981986e-18
8.989725e-18
7.012940e-18
8.788613e-18
-6.878065e-18
1.075496e-17
1.001241e-17
1.010734e-18
1.220207e-17
1.237855e-17
9.388672e-18
2.347003e-17
9.923914e-17
3.349626e-16
1.055090e-15
3.207402e-15
9.638410e-15
2.892907e-14
8.682314e-14
2.607941e-13
7.812680e-13
2.319981e-12
6.776040e-12
1.931089e-11
5.331392e-11
1.417617e-10
3.614991e-10
8.816346e-10
2.053437e-09
4.566033e-09
9.698144e-09
1.969857e-08
3.832409e-08
7.154983e-08
1.284415e-07
2.221401e-07
3.708592e-07
5.987411e-07
9.363695e-07
1.420710e-06
2.094264e-06
3.003284e-06
4.195004e-06
5.714020e-06
7.598087e-06
9.873787e-06
1.255259e-05
0.000000e+00
0.000000e+00
5.989811e-18
2.190735e-18
2.139769e-18
4.403424e-18
3.481169e-18
-7.463000e-20
5.592327e-18
4.559105e-18
-1.027297e-18
3.867027e-18
-2.430362e-19
1.823783e-18
6.490203e-19
3.411764e-18
4.882812e-18
4.241954e-18
2.781862e-18
6.239791e-18
8.405866e-18
8.603404e-18
-4.151427e-18
8.830539e-18
7.770306e-18
2.931570e-18
9.232288e-19
-1.176939e-18
1.262627e-18
3.707393e-18
1.644303e-18
7.804421e-18
-2.215741e-19
5.308993e-18
2.019092e-17
9.999257e-17
3.018421e-16
9.060610e-16
2.712153e-15
7.983610e-15
2.330321e-14
6.786396e-14
1.981344e-13
5.793204e-13
1.690602e-12
4.892631e-12
1.393363e-11
3.874008e-11
1.044072e-10
2.711724e-10
6.758128e-10
1.611480e-09
3.670748e-09
7.983689e-09
1.658602e-08
3.294832e-08
6.268288e-08
1.144183e-07
2.007927e-07
3.394688e-07
5.540183e-07
8.744781e-07
1.337352e-06
1.984838e-06
2.863124e-06
4.019702e-06
5.499793e-06
7.342173e-06
9.574814e-06
1.221087e-05
0.000000e+00
0.000000e+00
6.840553e-18
4.061175e-18
1.539933e-18
7.094508e-19
3.046537e-18
2.257913e-18
-1.178979e-18
4.301429e-18
5.091847e-18
5.873331e-19
-4.012380e-18
3.894350e-18
6.418223e-18
-1.627999e-18
4.733216e-18
4.256888e-18
4.765180e-18
4.948542e-19
3.477429e-18
1.662017e-18
4.335605e-18
5.100620e-18
1.927803e-18
-2.099524e-18
6.812978e-18
7.705410e-18
6.153165e-18
5.651382e-18
-2.531802e-19
1.365601e-17
9.120751e-18
1.072768e-17
1.302371e-17
8.469245e-17
2.642930e-16
8.016148e-16
2.339717e-15
6.692974e-15
1.901901e-14
5.393625e-14
1.527768e-13
4.341467e-13
1.236309e-12
3.514870e-12
9.913772e-12
2.752982e-11
7.468507e-11
1.965550e-10
4.989312e-10
1.216179e-09
2.838224e-09
6.330277e-09
1.348435e-08
2.743861e-08
5.338505e-08
9.945667e-08
1.777431e-07
3.053338e-07
5.052370e-07
8.069769e-07
1.246646e-06
1.866200e-06
2.711821e-06
3.831307e-06
5.270555e-06
7.069405e-06
9.257262e-06
1.184901e-05
0.000000e+00
0.000000e+00
1.869602e-18
3.486804e-18
4.564227e-18
3.253970e-18
3.882064e-18
2.914521e-18
3.233605e-18
2.834370e-19
4.698591e-18
1.985935e-18
4.584203e-18
3.656420e-18
3.256799e-18
3.755413e-18
6.061262e-18
2.630931e-18
1.320699e-18
5.635113e-18
5.156862e-18
1.151589e-17
1.071137e-17
5.955212e-18
1.932735e-18
7.994665e-18
4.844305e-18
8.495293e-18
-1.084211e-17
-6.120047e-19
1.266660e-17
-5.548340e-18
-8.807199e-18
1.939380e-17
1.540568e-17
6.290407e-17
2.424373e-16
6.947096e-16
2.020888e-15
5.646417e-15
1.575270e-14
4.351985e-14
1.198908e-13
3.306539e-13
9.149955e-13
2.538298e-12
7.031184e-12
1.932822e-11
5.233833e-11
1.385646e-10
3.562241e-10
8.841964e-10
2.109603e-09
4.822895e-09
1.054426e-08
2.202577e-08
4.395930e-08
8.388712e-08
1.532623e-07
2.685489e-07
4.521969e-07
7.332881e-07
1.147630e-06
1.737086e-06
2.547990e-06
3.628575e-06
5.025503e-06
6.779728e-06
8.922103e-06
1.146923e-05
0.000000e+00
0.000000e+00
1.904859e-18
1.675988e-19
-4.137810e-19
5.319616e-18
6.646131e-18
3.334743e-18
4.423521e-18
6.784430e-18
1.540100e-18
4.056968e-19
1.300218e-18
3.583364e-18
1.143419e-18
3.278270e-19
2.961997e-18
5.452567e-18
3.151928e-18
2.497552e-18
7.182844e-18
8.793673e-18
3.693151e-18
-8.408290e-19
9.388023e-18
4.382813e-18
1.267366e-17
7.279421e-18
7.155847e-18
-2.586609e-18
3.236616e-18
6.537620e-18
7.718731e-18
2.073099e-18
1.758660e-17
6.037920e-17
2.102339e-16
5.986421e-16
1.719365e-15
4.794909e-15
1.313674e-14
3.559531e-14
9.561661e-14
2.564141e-13
6.888730e-13
1.857270e-12
5.020222e-12
1.355062e-11
3.630619e-11
9.587574e-11
2.477533e-10
6.223674e-10
1.511303e-09
3.531766e-09
7.916532e-09
1.698372e-08
3.483225e-08
6.827613e-08
1.279722e-07
2.296222e-07
3.950588e-07
6.529815e-07
1.039101e-06
1.595478e-06
2.368926e-06
3.408418e-06
4.761609e-06
6.470692e-06
8.567983e-06
1.107172e-05
0.000000e+00
0.000000e+00
5.664342e-18
6.091593e-18
5.847047e-18
-1.468604e-18
6.730044e-19
2.803829e-18
-2.268142e-18
-8.105601e-20
-4.057054e-18
6.257981e-18
5.050527e-18
3.268288e-18
1.148096e-18
7.904827e-18
3.472940e-18
8.302476e-18
6.333139e-18
-3.176652e-18
8.130239e-18
1.142326e-17
9.927768e-18
8.255532e-18
3.077687e-18
-6.750357e-19
1.181919e-18
8.255380e-18
2.935551e-18
-1.631750e-18
5.703930e-19
4.756321e-18
7.548197e-18
-1.485653e-18
1.386499e-17
5.811587e-17
1.905491e-16
5.178814e-16
1.473191e-15
4.077531e-15
1.101285e-14
2.936032e-14
7.728014e-14
2.021707e-13
5.282475e-13
1.383148e-12
3.635004e-12
9.575890e-12
2.519016e-11
6.579023e-11
1.694530e-10
4.274905e-10
1.049649e-09
2.494720e-09
5.713692e-09
1.256726e-08
2.648207e-08
5.338641e-08
1.029067e-07
1.897127e-07
3.347990e-07
5.664118e-07
9.203186e-07
1.439171e-06
2.170826e-06
3.165618e-06
4.472740e-06
6.135989e-06
8.189279e-06
1.065240e-05
0.000000e+00
0.000000e+00
5.957899e-18
-2.561428e-18
1.267460e-18
4.776683e-18
1.639715e-18
-2.106024e-18
-4.052626e-20
4.949604e-18
1.788159e-18
5.703583e-18
5.068050e-18
2.297667e-18
1.384484e-17
7.449058e-18
9.141834e-18
1.050998e-17
3.765267e-18
9.311288e-18
-7.144593e-18
-5.934969e-18
1.896343e-18
8.182376e-18
1.253446e-17
6.080041e-18
6.905564e-18
-7.720297e-18
2.851969e-18
-1.875087e-18
7.955068e-18
-8.441307e-18
1.611686e-17
5.369636e-18
1.048954e-17
6.166692e-17
1.398269e-16
4.339583e-16
1.253335e-15
3.441421e-15
9.231190e-15
2.432560e-14
6.302285e-14
1.615477e-13
4.119046e-13
1.049367e-12
2.679675e-12
6.867090e-12
1.763609e-11
4.522314e-11
1.151547e-10
2.893450e-10
7.127929e-10
1.711217e-09
3.982310e-09
8.943808e-09
1.931680e-08
4.001690e-08
7.938008e-08
1.506526e-07
2.735384e-07
4.754641e-07
7.921535e-07
1.267148e-06
1.950068e-06
2.893628e-06
4.149649e-06
5.764450e-06
7.774112e-06
1.020010e-05
0.000000e+00
0.000000e+00
2.565292e-18
2.458360e-18
5.705039e-18
6.113205e-18
2.207126e-18
2.350364e-18
4.787182e-18
5.120986e-18
2.444959e-18
4.252524e-18
2.299222e-18
4.783937e-18
1.325600e-17
-1.497499e-18
6.178808e-18
7.872597e-18
2.686557e-18
2.943972e-18
7.496787e-18
3.246415e-18
1.983095e-18
5.192634e-18
9.417881e-18
3.421739e-18
7.003111e-18
-1.222776e-17
3.322577e-18
-4.912718e-18
-3.837770e-18
-5.654929e-18
5.485786e-18
2.440409e-18
1.228615e-17
2.834264e-17
1.239953e-16
3.947254e-16
1.071527e-15
2.900172e-15
7.737645e-15
2.016298e-14
5.160505e-14
1.302155e-13
3.254426e-13
8.094541e-13
2.012265e-12
5.014188e-12
1.253524e-11
3.139542e-11
7.849799e-11
1.949340e-10
4.779518e-10
1.150067e-09
2.700385e-09
6.155640e-09
1.356322e-08
2.878281e-08
5.866484e-08
1.146170e-07
2.144140e-07
3.839145e-07
6.581841e-07
1.081479e-06
1.705686e-06
2.587116e-06
3.781944e-06
5.340847e-06
7.303578e-06
9.694146e-06
0.000000e+00
0.000000e+00
6.175250e-18
5.594832e-18
-2.332807e-18
1.052851e-18
5.389098e-18
4.949125e-18
-4.064410e-19
1.793356e-18
3.109040e-18
6.080868e-18
8.916305e-18
8.957296e-18
1.016087e-17
8.525730e-18
6.455018e-18
3.276974e-18
1.077408e-17
7.248244e-18
2.404294e-18
9.518067e-18
-3.842771e-18
6.040532e-18
1.002385e-17
4.605859e-18
-3.032061e-18
1.275201e-17
2.002091e-18
3.343825e-18
2.428042e-17
9.904110e-19
3.678898e-18
-6.734219e-19
1.489380e-17
3.497492e-17
1.064959e-16
3.144918e-16
8.718470e-16
2.433322e-15
6.440117e-15
1.666670e-14
4.227110e-14
1.053943e-13
2.592708e-13
6.323558e-13
1.535776e-12
3.728255e-12
9.070529e-12
2.213170e-11
5.407970e-11
1.318945e-10
3.195361e-10
7.647621e-10
1.798037e-09
4.130516e-09
9.226228e-09
1.995259e-08
4.162529e-08
8.352748e-08
1.608668e-07
2.969252e-07
5.248998e-07
8.887350e-07
1.442242e-06
2.246084e-06
3.362723e-06
4.849975e-06
6.754246e-06
9.104516e-06
0.000000e+00
0.000000e+00
5.678821e-18
5.560967e-18
5.435792e-18
2.268786e-18
3.488313e-18
6.096517e-18
-1.630630e-19
-4.911310e-19
8.223650e-19
5.454292e-18
1.311904e-17
1.000588e-17
3.012384e-18
8.810921e-18
8.157234e-18
1.061303e-17
8.179835e-18
7.933341e-18
-9.901150e-18
2.428703e-18
-3.834060e-18
6.264287e-18
1.146259e-18
-6.127692e-19
8.647486e-18
-9.038242e-18
2.754702e-18
4.188665e-18
1.795811e-17
7.177589e-18
3.224195e-18
3.926382e-18
6.627216e-18
1.130525e-17
8.422506e-17
2.590609e-16
7.477386e-16
2.003063e-15
5.310384e-15
1.367769e-14
3.452350e-14
8.526718e-14
2.073255e-13
4.979498e-13
1.186347e-12
2.815471e-12
6.679270e-12
1.587598e-11
3.782841e-11
9.022914e-11
2.147580e-10
5.078125e-10
1.186864e-09
2.727538e-09
6.132410e-09
1.342678e-08
2.850976e-08
5.849669e-08
1.156308e-07
2.196767e-07
4.004261e-07
6.996103e-07
1.171280e-06
1.879772e-06
2.894847e-06
4.284364e-06
6.105682e-06
8.397436e-06
0.000000e+00
0.000000e+00
6.547324e-18
5.283329e-18
-2.430404e-19
3.812090e-18
5.120624e-18
6.197288e-18
-2.293030e-18
2.962927e-18
1.025852e-17
9.643424e-18
1.135391e-17
4.356179e-18
6.635763e-18
9.426455e-18
8.133610e-18
7.762160e-18
6.712141e-18
1.245902e-18
1.202960e-17
-5.809859e-18
8.578266e-18
7.184049e-19
9.492473e-18
-3.760985e-18
-7.183627e-19
2.529993e-18
5.165338e-18
1.364668e-17
-2.513711e-18
7.012618e-18
4.588554e-18
5.998034e-18
1.226200e-17
1.788913e-17
7.496565e-17
2.089831e-16
6.069158e-16
1.649166e-15
4.314589e-15
1.114586e-14
2.796421e-14
6.868799e-14
1.655917e-13
3.931837e-13
9.228580e-13
2.149912e-12
4.990221e-12
1.157800e-11
2.690511e-11
6.264580e-11
1.459485e-10
3.392105e-10
7.832930e-10
1.788668e-09