# vtk DataFile Version 3.0
Resultado Projeto 3
ASCII
DATASET STRUCTURED_GRID
DIMENSIONS 140 60 1 
POINTS 8400 double
0.000000e+00 0.000000e+00 0.000000e+00
2.517986e-02 0.000000e+00 0.000000e+00
5.035971e-02 0.000000e+00 0.000000e+00
7.553957e-02 0.000000e+00 0.000000e+00
1.007194e-01 0.000000e+00 0.000000e+00
1.258993e-01 0.000000e+00 0.000000e+00
1.510791e-01 0.000000e+00 0.000000e+00
1.762590e-01 0.000000e+00 0.000000e+00
2.014388e-01 0.000000e+00 0.000000e+00
2.266187e-01 0.000000e+00 0.000000e+00
2.517986e-01 0.000000e+00 0.000000e+00
2.769784e-01 0.000000e+00 0.000000e+00
3.021583e-01 0.000000e+00 0.000000e+00
3.273381e-01 0.000000e+00 0.000000e+00
3.525180e-01 0.000000e+00 0.000000e+00
3.776978e-01 0.000000e+00 0.000000e+00
4.028777e-01 0.000000e+00 0.000000e+00
4.280576e-01 0.000000e+00 0.000000e+00
4.532374e-01 0.000000e+00 0.000000e+00
4.784173e-01 0.000000e+00 0.000000e+00
5.035971e-01 0.000000e+00 0.000000e+00
5.287770e-01 0.000000e+00 0.000000e+00
5.539568e-01 0.000000e+00 0.000000e+00
5.791367e-01 0.000000e+00 0.000000e+00
6.043165e-01 0.000000e+00 0.000000e+00
6.294964e-01 0.000000e+00 0.000000e+00
6.546763e-01 0.000000e+00 0.000000e+00
6.798561e-01 0.000000e+00 0.000000e+00
7.050360e-01 0.000000e+00 0.000000e+00
7.302158e-01 0.000000e+00 0.000000e+00
7.553957e-01 0.000000e+00 0.000000e+00
7.805755e-01 0.000000e+00 0.000000e+00
8.057554e-01 0.000000e+00 0.000000e+00
8.309353e-01 0.000000e+00 0.000000e+00
8.561151e-01 0.000000e+00 0.000000e+00
8.812950e-01 0.000000e+00 0.000000e+00
9.064748e-01 0.000000e+00 0.000000e+00
9.316547e-01 0.000000e+00 0.000000e+00
9.568345e-01 0.000000e+00 0.000000e+00
9.820144e-01 0.000000e+00 0.000000e+00
1.007194e+00 0.000000e+00 0.000000e+00
1.032374e+00 0.000000e+00 0.000000e+00
1.057554e+00 0.000000e+00 0.000000e+00
1.082734e+00 0.000000e+00 0.000000e+00
1.107914e+00 0.000000e+00 0.000000e+00
1.133094e+00 0.000000e+00 0.000000e+00
1.158273e+00 0.000000e+00 0.000000e+00
1.183453e+00 0.000000e+00 0.000000e+00
1.208633e+00 0.000000e+00 0.000000e+00
1.233813e+00 0.000000e+00 0.000000e+00
1.258993e+00 0.000000e+00 0.000000e+00
1.284173e+00 0.000000e+00 0.000000e+00
1.309353e+00 0.000000e+00 0.000000e+00
1.334532e+00 0.000000e+00 0.000000e+00
1.359712e+00 0.000000e+00 0.000000e+00
1.384892e+00 0.000000e+00 0.000000e+00
1.410072e+00 0.000000e+00 0.000000e+00
1.435252e+00 0.000000e+00 0.000000e+00
1.460432e+00 0.000000e+00 0.000000e+00
1.485612e+00 0.000000e+00 0.000000e+00
1.510791e+00 0.000000e+00 0.000000e+00
1.535971e+00 0.000000e+00 0.000000e+00
1.561151e+00 0.000000e+00 0.000000e+00
1.586331e+00 0.000000e+00 0.000000e+00
1.611511e+00 0.000000e+00 0.000000e+00
1.636691e+00 0.000000e+00 0.000000e+00
1.661871e+00 0.000000e+00 0.000000e+00
1.687050e+00 0.000000e+00 0.000000e+00
1.712230e+00 0.000000e+00 0.000000e+00
1.737410e+00 0.000000e+00 0.000000e+00
1.762590e+00 0.000000e+00 0.000000e+00
1.787770e+00 0.000000e+00 0.000000e+00
1.812950e+00 0.000000e+00 0.000000e+00
1.838129e+00 0.000000e+00 0.000000e+00
1.863309e+00 0.000000e+00 0.000000e+00
1.888489e+00 0.000000e+00 0.000000e+00
1.913669e+00 0.000000e+00 0.000000e+00
1.938849e+00 0.000000e+00 0.000000e+00
1.964029e+00 0.000000e+00 0.000000e+00
1.989209e+00 0.000000e+00 0.000000e+00
2.014388e+00 0.000000e+00 0.000000e+00
2.039568e+00 0.000000e+00 0.000000e+00
2.064748e+00 0.000000e+00 0.000000e+00
2.089928e+00 0.000000e+00 0.000000e+00
2.115108e+00 0.000000e+00 0.000000e+00
2.140288e+00 0.000000e+00 0.000000e+00
2.165468e+00 0.000000e+00 0.000000e+00
2.190647e+00 0.000000e+00 0.000000e+00
2.215827e+00 0.000000e+00 0.000000e+00
2.241007e+00 0.000000e+00 0.000000e+00
2.266187e+00 0.000000e+00 0.000000e+00
2.291367e+00 0.000000e+00 0.000000e+00
2.316547e+00 0.000000e+00 0.000000e+00
2.341727e+00 0.000000e+00 0.000000e+00
2.366906e+00 0.000000e+00 0.000000e+00
2.392086e+00 0.000000e+00 0.000000e+00
2.417266e+00 0.000000e+00 0.000000e+00
2.442446e+00 0.000000e+00 0.000000e+00
2.467626e+00 0.000000e+00 0.000000e+00
2.492806e+00 0.000000e+00 0.000000e+00
2.517986e+00 0.000000e+00 0.000000e+00
2.543165e+00 0.000000e+00 0.000000e+00
2.568345e+00 0.000000e+00 0.000000e+00
2.593525e+00 0.000000e+00 0.000000e+00
2.618705e+00 0.000000e+00 0.000000e+00
2.643885e+00 0.000000e+00 0.000000e+00
2.669065e+00 0.000000e+00 0.000000e+00
2.694245e+00 0.000000e+00 0.000000e+00
2.719424e+00 0.000000e+00 0.000000e+00
2.744604e+00 0.000000e+00 0.000000e+00
2.769784e+00 0.000000e+00 0.000000e+00
2.794964e+00 0.000000e+00 0.000000e+00
2.820144e+00 0.000000e+00 0.000000e+00
2.845324e+00 0.000000e+00 0.000000e+00
2.870504e+00 0.000000e+00 0.000000e+00
2.895683e+00 0.000000e+00 0.000000e+00
2.920863e+00 0.000000e+00 0.000000e+00
2.946043e+00 0.000000e+00 0.000000e+00
2.971223e+00 0.000000e+00 0.000000e+00
2.996403e+00 0.000000e+00 0.000000e+00
3.021583e+00 0.000000e+00 0.000000e+00
3.046763e+00 0.000000e+00 0.000000e+00
3.071942e+00 0.000000e+00 0.000000e+00
3.097122e+00 0.000000e+00 0.000000e+00
3.122302e+00 0.000000e+00 0.000000e+00
3.147482e+00 0.000000e+00 0.000000e+00
3.172662e+00 0.000000e+00 0.000000e+00
3.197842e+00 0.000000e+00 0.000000e+00
3.223022e+00 0.000000e+00 0.000000e+00
3.248201e+00 0.000000e+00 0.000000e+00
3.273381e+00 0.000000e+00 0.000000e+00
3.298561e+00 0.000000e+00 0.000000e+00
3.323741e+00 0.000000e+00 0.000000e+00
3.348921e+00 0.000000e+00 0.000000e+00
3.374101e+00 0.000000e+00 0.000000e+00
3.399281e+00 0.000000e+00 0.000000e+00
3.424460e+00 0.000000e+00 0.000000e+00
3.449640e+00 0.000000e+00 0.000000e+00
3.474820e+00 0.000000e+00 0.000000e+00
3.500000e+00 0.000000e+00 0.000000e+00
0.000000e+00 1.694915e-02 0.000000e+00
2.517986e-02 1.694915e-02 0.000000e+00
5.035971e-02 1.694915e-02 0.000000e+00
7.553957e-02 1.694915e-02 0.000000e+00
1.007194e-01 1.694915e-02 0.000000e+00
1.258993e-01 1.694915e-02 0.000000e+00
1.510791e-01 1.694915e-02 0.000000e+00
1.762590e-01 1.694915e-02 0.000000e+00
2.014388e-01 1.694915e-02 0.000000e+00
2.266187e-01 1.694915e-02 0.000000e+00
2.517986e-01 1.694915e-02 0.000000e+00
2.769784e-01 1.694915e-02 0.000000e+00
3.021583e-01 1.694915e-02 0.000000e+00
3.273381e-01 1.694915e-02 0.000000e+00
3.525180e-01 1.694915e-02 0.000000e+00
3.776978e-01 1.694915e-02 0.000000e+00
4.028777e-01 1.694915e-02 0.000000e+00
4.280576e-01 1.694915e-02 0.000000e+00
4.532374e-01 1.694915e-02 0.000000e+00
4.784173e-01 1.694915e-02 0.000000e+00
5.035971e-01 1.694915e-02 0.000000e+00
5.287770e-01 1.694915e-02 0.000000e+00
5.539568e-01 1.694915e-02 0.000000e+00
5.791367e-01 1.694915e-02 0.000000e+00
6.043165e-01 1.694915e-02 0.000000e+00
6.294964e-01 1.694915e-02 0.000000e+00
6.546763e-01 1.694915e-02 0.000000e+00
6.798561e-01 1.694915e-02 0.000000e+00
7.050360e-01 1.694915e-02 0.000000e+00
7.302158e-01 1.694915e-02 0.000000e+00
7.553957e-01 1.694915e-02 0.000000e+00
7.805755e-01 1.694915e-02 0.000000e+00
8.057554e-01 1.694915e-02 0.000000e+00
8.309353e-01 1.694915e-02 0.000000e+00
8.561151e-01 1.694915e-02 0.000000e+00
8.812950e-01 1.694915e-02 0.000000e+00
9.064748e-01 1.694915e-02 0.000000e+00
9.316547e-01 1.694915e-02 0.000000e+00
9.568345e-01 1.694915e-02 0.000000e+00
9.820144e-01 1.694915e-02 0.000000e+00
1.007194e+00 1.694915e-02 0.000000e+00
1.032374e+00 1.694915e-02 0.000000e+00
1.057554e+00 1.694915e-02 0.000000e+00
1.082734e+00 1.694915e-02 0.000000e+00
1.107914e+00 1.694915e-02 0.000000e+00
1.133094e+00 1.694915e-02 0.000000e+00
1.158273e+00 1.694915e-02 0.000000e+00
1.183453e+00 1.694915e-02 0.000000e+00
1.208633e+00 1.694915e-02 0.000000e+00
1.233813e+00 1.694915e-02 0.000000e+00
1.258993e+00 1.694915e-02 0.000000e+00
1.284173e+00 1.694915e-02 0.000000e+00
1.309353e+00 1.694915e-02 0.000000e+00
1.334532e+00 1.694915e-02 0.000000e+00
1.359712e+00 1.694915e-02 0.000000e+00
1.384892e+00 1.694915e-02 0.000000e+00
1.410072e+00 1.694915e-02 0.000000e+00
1.435252e+00 1.694915e-02 0.000000e+00
1.460432e+00 1.694915e-02 0.000000e+00
1.485612e+00 1.694915e-02 0.000000e+00
1.510791e+00 1.694915e-02 0.000000e+00
1.535971e+00 1.694915e-02 0.000000e+00
1.561151e+00 1.694915e-02 0.000000e+00
1.586331e+00 1.694915e-02 0.000000e+00
1.611511e+00 1.694915e-02 0.000000e+00
1.636691e+00 1.694915e-02 0.000000e+00
1.661871e+00 1.694915e-02 0.000000e+00
1.687050e+00 1.694915e-02 0.000000e+00
1.712230e+00 1.694915e-02 0.000000e+00
1.737410e+00 1.694915e-02 0.000000e+00
1.762590e+00 1.694915e-02 0.000000e+00
1.787770e+00 1.694915e-02 0.000000e+00
1.812950e+00 1.694915e-02 0.000000e+00
1.838129e+00 1.694915e-02 0.000000e+00
1.863309e+00 1.694915e-02 0.000000e+00
1.888489e+00 1.694915e-02 0.000000e+00
1.913669e+00 1.694915e-02 0.000000e+00
1.938849e+00 1.694915e-02 0.000000e+00
1.964029e+00 1.694915e-02 0.000000e+00
1.989209e+00 1.694915e-02 0.000000e+00
2.014388e+00 1.694915e-02 0.000000e+00
2.039568e+00 1.694915e-02 0.000000e+00
2.064748e+00 1.694915e-02 0.000000e+00
2.089928e+00 1.694915e-02 0.000000e+00
2.115108e+00 1.694915e-02 0.000000e+00
2.140288e+00 1.694915e-02 0.000000e+00
2.165468e+00 1.694915e-02 0.000000e+00
2.190647e+00 1.694915e-02 0.000000e+00
2.215827e+00 1.694915e-02 0.000000e+00
2.241007e+00 1.694915e-02 0.000000e+00
2.266187e+00 1.694915e-02 0.000000e+00
2.291367e+00 1.694915e-02 0.000000e+00
2.316547e+00 1.694915e-02 0.000000e+00
2.341727e+00 1.694915e-02 0.000000e+00
2.366906e+00 1.694915e-02 0.000000e+00
2.392086e+00 1.694915e-02 0.000000e+00
2.417266e+00 1.694915e-02 0.000000e+00
2.442446e+00 1.694915e-02 0.000000e+00
2.467626e+00 1.694915e-02 0.000000e+00
2.492806e+00 1.694915e-02 0.000000e+00
2.517986e+00 1.694915e-02 0.000000e+00
2.543165e+00 1.694915e-02 0.000000e+00
2.568345e+00 1.694915e-02 0.000000e+00
2.593525e+00 1.694915e-02 0.000000e+00
2.618705e+00 1.694915e-02 0.000000e+00
2.643885e+00 1.694915e-02 0.000000e+00
2.669065e+00 1.694915e-02 0.000000e+00
2.694245e+00 1.694915e-02 0.000000e+00
2.719424e+00 1.694915e-02 0.000000e+00
2.744604e+00 1.694915e-02 0.000000e+00
2.769784e+00 1.694915e-02 0.000000e+00
2.794964e+00 1.694915e-02 0.000000e+00
2.820144e+00 1.694915e-02 0.000000e+00
[...]
POINT_DATA 8400
SCALARS RES_Cont double
LOOKUP_TABLE default
0.000000e+00
0.000000e+00
0.000000e+00
0.000000e+00
0.000000e+00
0.000000e+00
0.000000e+00
0.000000e+00
0.000000e+00
0.000000e+00
0.000000e+00
0.000000e+00
0.000000e+00
0.000000e+00
0.000000e+00
0.000000e+00
0.000000e+00
0.000000e+00
0.000000e+00
0.000000e+00
0.000000e+00
0.000000e+00
0.000000e+00
0.000000e+00
0.000000e+00
0.000000e+00
0.000000e+00
0.000000e+00
0.000000e+00
0.000000e+00
0.000000e+00
0.000000e+00
0.000000e+00
0.000000e+00
0.000000e+00
0.000000e+00
0.000000e+00
0.000000e+00
0.000000e+00
0.000000e+00
0.000000e+00
0.000000e+00
0.000000e+00
0.000000e+00
0.000000e+00
0.000000e+00
0.000000e+00
0.000000e+00
0.000000e+00
0.000000e+00
0.000000e+00
0.000000e+00
0.000000e+00
0.000000e+00
0.000000e+00
0.000000e+00
0.000000e+00
0.000000e+00
0.000000e+00
0.000000e+00
0.000000e+00
0.000000e+00
0.000000e+00
0.000000e+00
0.000000e+00
0.000000e+00
0.000000e+00
0.000000e+00
0.000000e+00
0.000000e+00
0.000000e+00
0.000000e+00
0.000000e+00
0.000000e+00
0.000000e+00
0.000000e+00
0.000000e+00
0.000000e+00
0.000000e+00
0.000000e+00
0.000000e+00
0.000000e+00
0.000000e+00
0.000000e+00
0.000000e+00
0.000000e+00
0.000000e+00
0.000000e+00
0.000000e+00
0.000000e+00
0.000000e+00
0.000000e+00
0.000000e+00
0.000000e+00
0.000000e+00
0.000000e+00
0.000000e+00
0.000000e+00
0.000000e+00
0.000000e+00
0.000000e+00
0.000000e+00
0.000000e+00
0.000000e+00
0.000000e+00
0.000000e+00
0.000000e+00
0.000000e+00
0.000000e+00
0.000000e+00
0.000000e+00
0.000000e+00
0.000000e+00
0.000000e+00
0.000000e+00
0.000000e+00
0.000000e+00
0.000000e+00
0.000000e+00
0.000000e+00
0.000000e+00
0.000000e+00
0.000000e+00
0.000000e+00
0.000000e+00
0.000000e+00
0.000000e+00
0.000000e+00
0.000000e+00
0.000000e+00
0.000000e+00
0.000000e+00
0.000000e+00
0.000000e+00
0.000000e+00
0.000000e+00
0.000000e+00
0.000000e+00
0.000000e+00
0.000000e+00
0.000000e+00
-0.000000e+00
-0.000000e+00
-0.000000e+00
-0.000000e+00
-0.000000e+00
-0.000000e+00
3.951571e-19
-2.766100e-18
2.082467e-18
2.280046e-18
-4.179766e-18
-8.663792e-19
2.416391e-18
2.578590e-19
1.793992e-18
-1.484016e-18
-1.063548e-18
2.649366e-19
2.699694e-18
5.265341e-18
-2.494562e-18
-1.989806e-18
-3.058427e-18
-1.844521e-18
-9.851316e-18
-1.634192e-18
1.363686e-18
-2.119530e-18
4.621440e-18
2.057446e-17
8.531781e-17
3.390114e-16
1.108265e-15
2.903531e-15
4.575701e-15
-7.365576e-15
-1.045383e-13
-5.708346e-13
-2.329972e-12
-7.883549e-12
-2.268722e-11
-5.502951e-11
-1.064195e-10
-1.302580e-10
8.751493e-11
1.194066e-09
4.723319e-09
1.360428e-08
3.213239e-08
6.401481e-08
1.062241e-07
1.362696e-07
9.248608e-08
-1.478161e-07
-7.795233e-07
-2.050195e-06
-4.189253e-06
-7.276472e-06
-1.106387e-05
-1.479522e-05
-1.709401e-05
-1.600046e-05
-9.217374e-06
5.437438e-06
2.946756e-05
6.320377e-05
1.055751e-04
1.542529e-04
2.061201e-04
2.578867e-04
3.066434e-04
3.502155e-04
3.872833e-04
4.173195e-04
4.404256e-04
4.571420e-04
4.682739e-04
4.747517e-04
4.775335e-04
4.775487e-04
4.756832e-04
4.727978e-04
4.697717e-04
4.675565e-04
4.672195e-04
4.699519e-04
4.770163e-04
4.896145e-04
5.086700e-04
5.345410e-04
5.667057e-04
6.034860e-04
6.418974e-04
6.777202e-04
7.058811e-04
7.211922e-04
7.194168e-04
6.985072e-04
6.597124e-04
6.081494e-04
5.524546e-04
5.033612e-04
4.714229e-04
4.644478e-04
4.853175e-04
5.307400e-04
5.912716e-04
6.527943e-04
6.994993e-04
7.181044e-04
7.023915e-04
6.563718e-04
5.941256e-04
5.354737e-04
4.989157e-04
4.950463e-04
5.233016e-04
5.728130e-04
6.263404e-04
6.658384e-04
6.783702e-04
6.607755e-04
6.211259e-04
5.757096e-04
5.424000e-04
5.333542e-04
5.503213e-04
5.844052e-04
6.201690e-04
6.423574e-04
6.425023e-04
6.224997e-04
5.933421e-04
5.694786e-04
5.616261e-04
5.717581e-04
5.927951e-04
6.129460e-04
0.000000e+00
0.000000e+00
-0.000000e+00
-0.000000e+00
-0.000000e+00
-0.000000e+00
-0.000000e+00
3.951571e-19
-5.927357e-19
1.778207e-18
7.903142e-19
-3.769777e-18
-2.675203e-18
5.684329e-18
1.580628e-18
-2.141795e-18
-1.256773e-18
-1.647168e-18
4.856187e-18
-5.538216e-19
2.978494e-18
7.029502e-18
7.397945e-18
5.404105e-19
7.233622e-18
1.278819e-18
-1.373228e-17
6.468961e-18
2.087843e-18
2.944687e-18
1.311986e-17
3.643733e-17
1.020662e-16
3.049455e-16
5.228237e-16
-7.972747e-16
-1.303995e-14
-7.748434e-14
-3.431327e-13
-1.259764e-12
-3.938810e-12
-1.041493e-11
-2.217576e-11
-3.137414e-11
9.308787e-12
2.642787e-10
1.169822e-09
3.653061e-09
9.240698e-09
1.952339e-08
3.390441e-08
4.416635e-08
2.491904e-08
-7.848467e-08
-3.579483e-07
-9.337639e-07
-1.912755e-06
-3.302063e-06
-4.883388e-06
-6.078745e-06
-5.868301e-06
-2.840942e-06
4.551444e-06
1.752808e-05
3.641232e-05
6.019635e-05
8.649282e-05
1.119805e-04
1.331952e-04
1.473358e-04
1.527679e-04
1.490965e-04
1.369024e-04
1.173347e-04
9.172781e-05
6.134238e-05
2.724617e-05
-9.700428e-06
-4.880452e-05
-8.948112e-05
-1.311941e-04
-1.734067e-04
-2.155425e-04
-2.569515e-04
-2.968782e-04
-3.344339e-04
-3.685791e-04
-3.981295e-04
-4.217945e-04
-4.382588e-04
-4.463096e-04
-4.449980e-04
-4.338177e-04
-4.128726e-04
-3.830114e-04
-3.459185e-04
-3.041601e-04
-2.611754e-04
-2.211765e-04
-1.888869e-04
-1.690437e-04
-1.656234e-04
-1.808556e-04
-2.142300e-04
-2.618203e-04
-3.162567e-04
-3.675663e-04
-4.049010e-04
-4.189455e-04
-4.045513e-04
-3.629174e-04
-3.025109e-04
-2.380143e-04
-1.869846e-04
-1.647268e-04
-1.789750e-04
-2.264863e-04
-2.930750e-04
-3.574597e-04
-3.980721e-04
-4.008089e-04
-3.648280e-04
-3.035973e-04
-2.402018e-04
-1.985832e-04
-1.941463e-04
-2.274314e-04
-2.835313e-04
-3.380037e-04
-3.675216e-04
-3.606669e-04
-3.231312e-04
-2.743313e-04
-2.374945e-04
-2.285485e-04
-2.490438e-04
-2.861803e-04
-3.199258e-04
-3.337446e-04
-3.230704e-04
0.000000e+00
0.000000e+00
-0.000000e+00
-0.000000e+00
-0.000000e+00
-0.000000e+00
-0.000000e+00
-7.903142e-19
3.860674e-18
3.465517e-18
-2.281951e-19
-2.447008e-18
2.599138e-18
1.808823e-18
-3.433948e-18
-2.306852e-18
-4.598872e-18
-1.852367e-18
1.051708e-18
4.056740e-18
-4.563943e-18
-1.782903e-18
-7.609786e-18
-1.326122e-18
-4.173438e-18
-4.176847e-18
-4.273952e-18
3.209930e-18
2.535568e-18
5.255121e-18
8.379243e-18
1.991916e-17
5.302175e-17
-1.120224e-16
-1.809322e-15
-1.146881e-14
-5.469067e-14
-2.172045e-13
-7.373772e-13
-2.127191e-12
-4.990410e-12
-8.087418e-12
-2.207949e-13
6.426086e-11
3.229443e-10
1.106418e-09
3.039278e-09
6.931857e-09
1.292141e-08
1.789365e-08
1.009181e-08
-3.913338e-08
-1.832148e-07
-4.990003e-07
-1.061289e-06
-1.877407e-06
-2.776248e-06
-3.271568e-06
-2.456929e-06
9.734580e-07
8.474181e-06
2.112183e-05
3.891270e-05
6.017496e-05
8.146656e-05
9.815766e-05
1.055299e-04
9.991114e-05
7.937238e-05
4.380927e-05
-5.469091e-06
-6.635942e-05
-1.365315e-04
-2.138054e-04
-2.963079e-04
-3.824753e-04
-4.710096e-04
-5.608351e-04
-6.510443e-04
-7.408428e-04
-8.295199e-04
-9.164511e-04
-1.001110e-03
-1.083068e-03
-1.161959e-03
-1.237428e-03
-1.309040e-03
-1.376180e-03
-1.437930e-03
-1.492975e-03
-1.539555e-03
-1.575503e-03
-1.598407e-03
-1.605885e-03
-1.595963e-03
-1.567512e-03
-1.520719e-03
-1.457558e-03
-1.382201e-03
-1.301219e-03
-1.223424e-03
-1.159226e-03
-1.119409e-03
-1.113311e-03
-1.146484e-03
-1.218129e-03
-1.319041e-03
-1.431129e-03
-1.529749e-03
-1.589429e-03
-1.591873e-03
-1.533211e-03
-1.426972e-03
-1.301173e-03
-1.190523e-03
-1.126446e-03
-1.127980e-03
-1.195758e-03
-1.310119e-03
-1.434700e-03
-1.526888e-03
-1.553735e-03
-1.506645e-03
-1.405834e-03
-1.291401e-03
-1.206634e-03
-1.181807e-03
-1.223772e-03
-1.313257e-03
-1.411186e-03
-1.474705e-03
-1.477714e-03
-1.423853e-03
-1.343057e-03
-1.274819e-03
-1.249032e-03
-1.273342e-03
-1.331078e-03
-1.390364e-03
-1.421137e-03
0.000000e+00
0.000000e+00
-0.000000e+00
-0.000000e+00
-0.000000e+00
-0.000000e+00
3.951571e-19
-1.778207e-18
6.994172e-19
-7.903142e-19
-1.702142e-18
-2.492456e-18
-4.099891e-19
-2.567569e-18
-2.262356e-18
3.484159e-18
3.250249e-18
1.704966e-19
-2.392184e-18
2.681428e-18
-2.843710e-18
-8.183161e-18
-1.292212e-17
-1.901022e-17
5.451685e-18
9.754498e-18
9.489738e-18
8.849284e-18
-2.349400e-18
-2.763228e-18
6.686141e-18
-1.394320e-17
-2.269405e-16
-1.455609e-15
-7.573210e-15
-3.297720e-14
-1.232579e-13
-3.948911e-13
-1.048753e-12
-2.060926e-12
-1.406025e-12
1.147593e-11
7.411435e-11
2.915042e-10
8.987568e-10
2.290828e-09
4.809969e-09
7.789390e-09
7.017846e-09
-1.015250e-08
-7.148842e-08
-2.241348e-07
-5.263015e-07
-1.010701e-06
-1.605089e-06
-2.010501e-06
-1.572152e-06
7.735663e-07
6.352710e-06
1.630317e-05
3.084623e-05
4.854430e-05
6.599053e-05
7.827335e-05
8.012770e-05
6.722930e-05
3.704395e-05
-1.103514e-05
-7.611623e-05
-1.564390e-04
-2.498558e-04
-3.540700e-04
-4.667480e-04
-5.854774e-04
-7.075704e-04
-8.299528e-04
-9.492764e-04
-1.062163e-03
-1.165507e-03
-1.256852e-03
-1.334760e-03
-1.399062e-03
-1.450924e-03
-1.492751e-03
-1.528010e-03
-1.560959e-03
-1.596312e-03
-1.638791e-03
-1.692552e-03
-1.760492e-03
-1.843492e-03
-1.939724e-03
-2.044231e-03
-2.149018e-03
-2.243845e-03
-2.317714e-03
-2.360796e-03
-2.366340e-03
-2.332087e-03
-2.260889e-03
-2.160457e-03
-2.042371e-03
-1.920739e-03
-1.810972e-03
-1.728886e-03
-1.689727e-03
-1.706125e-03
-1.783977e-03
-1.916619e-03
-2.080181e-03
-2.235202e-03
-2.337899e-03
-2.357496e-03
-2.289167e-03
-2.154480e-03
-1.991255e-03
-1.841227e-03
-1.741988e-03
-1.722394e-03
-1.795411e-03
-1.946535e-03
-2.127219e-03
-2.268270e-03
-2.313541e-03
-2.249760e-03
-2.109066e-03
-1.948856e-03
-1.828505e-03
-1.792244e-03
-1.854750e-03
-1.989631e-03
-2.134015e-03
-2.218995e-03
-2.209134e-03
-2.119447e-03
-2.000661e-03
-1.910431e-03
-1.887997e-03
-1.938272e-03
-2.029476e-03
0.000000e+00
0.000000e+00
-0.000000e+00
-0.000000e+00
-0.000000e+00
-0.000000e+00
-1.383050e-18
5.927357e-19
-5.152827e-18
-4.255831e-18
-1.732758e-18
-1.383050e-18
-8.357627e-19
-2.567569e-18
1.415572e-18
2.245619e-18
-2.424831e-18
4.931968e-18
2.564720e-19
1.529421e-17
-4.713036e-21
-1.125030e-17
-4.505824e-18
-3.761541e-18
-9.957745e-18
7.492596e-18
4.151499e-18
1.161739e-17
1.212340e-17
-1.342369e-18
-2.133020e-17
-1.586416e-16
-8.934159e-16
-4.261573e-15
-1.751614e-14
-6.220278e-14
-1.862150e-13
-4.331460e-13
-5.362265e-13
1.492741e-12
1.414914e-11
6.521793e-11
2.278756e-10
6.537401e-10
1.555362e-09
2.946455e-09
3.707793e-09
-6.861557e-10
-2.222777e-08
-8.512777e-08
-2.263574e-07
-4.812855e-07
-8.391531e-07
-1.156921e-06
-1.041204e-06
2.484422e-07
3.765381e-06
1.057377e-05
2.111454e-05
3.440226e-05
4.748926e-05
5.567898e-05
5.357491e-05
3.646941e-05
1.372261e-06
-5.273626e-05
-1.252918e-04
-2.146358e-04
-3.183510e-04
-4.333684e-04
-5.555540e-04
-6.790711e-04
-7.959900e-04
-8.962812e-04
-9.685889e-04
-1.001834e-03
-9.870619e-04
-9.191249e-04
-7.978401e-04
-6.280887e-04
-4.187400e-04
-1.809311e-04
7.360023e-05
3.337029e-04
5.894110e-04
8.320294e-04
1.053853e-03
1.247690e-03
1.406353e-03
1.522318e-03
1.587728e-03
1.594945e-03
1.537797e-03
1.413525e-03
1.225168e-03
9.837085e-04
7.090092e-04
4.285498e-04
1.736866e-04
-2.573390e-05
-1.466453e-04
-1.761352e-04
-1.121655e-04
3.764433e-05
2.575130e-04
5.238584e-04
8.042856e-04
1.056447e-03
1.229564e-03
1.272578e-03
1.151795e-03
8.743915e-04
5.031001e-04
1.433171e-04
-9.810654e-05
-1.555333e-04
-2.092396e-05
2.652654e-04
6.287723e-04
9.716606e-04
1.186057e-03
1.184803e-03
9.487711e-04
5.613910e-04
1.847507e-04
-2.541232e-05
7.640075e-07
2.310865e-04
5.636836e-04
8.671321e-04
1.019387e-03
9.551255e-04
7.082015e-04
4.072241e-04
2.041679e-04
1.852863e-04
3.347607e-04
5.612438e-04
7.499009e-04
8.134275e-04
0.000000e+00
0.000000e+00
-0.000000e+00
-0.000000e+00
-0.000000e+00
-0.000000e+00
1.975786e-18
-3.572198e-18
-2.872781e-18
1.930337e-18
-4.741885e-18
-5.046145e-18
-4.240047e-18
9.424443e-19
-6.132832e-19
9.851687e-19
9.644792e-19
-4.197339e-18
-4.864911e-18
-3.558929e-18
-5.164217e-19
2.346722e-18
4.194255e-18
-3.860656e-18
-1.621068e-18
-1.905373e-18
2.899545e-18
-2.481319e-18
-5.093561e-18
-2.060438e-17
-9.371498e-17
-4.648584e-16
-2.100217e-15
-8.268542e-15
-2.771345e-14
-7.444349e-14
-1.267953e-13
1.213661e-13
2.278144e-12
1.250405e-11
4.973078e-11
1.608649e-10
4.332647e-10
9.501140e-10
1.523138e-09
8.497503e-10
-5.398059e-09
-2.770161e-08
-8.552698e-08
-2.045411e-07
-3.974584e-07
-6.145047e-07
-6.565244e-07
-7.157689e-08
1.891566e-06
6.141501e-06
1.328317e-05
2.285825e-05
3.261087e-05
3.832657e-05
3.458371e-05
1.613188e-05
-2.082078e-05
-7.803570e-05
-1.552630e-04
-2.503554e-04
-3.592539e-04
-4.751257e-04
-5.869120e-04
-6.781978e-04
-7.274051e-04
-7.102783e-04
-6.046786e-04
-3.975699e-04
-9.134661e-05
2.949102e-04
7.300976e-04
1.179178e-03
1.611256e-03
2.004779e-03
2.348899e-03
2.641929e-03
2.888569e-03
3.097140e-03
3.277434e-03
3.439278e-03
3.591672e-03
3.742328e-03
3.897397e-03
4.061219e-03
4.235984e-03
4.421184e-03
4.612868e-03
4.802820e-03
4.977986e-03
5.120713e-03
5.210434e-03
5.227228e-03
5.156962e-03
4.996812e-03
4.759158e-03
4.471941e-03
4.174718e-03
3.911606e-03
3.723694e-03
3.643080e-03
3.689055e-03
3.865350e-03
4.156892e-03
4.525275e-03
4.904684e-03
5.204474e-03
5.328020e-03
5.211361e-03
4.865655e-03
4.390881e-03
3.940366e-03
3.655285e-03
3.614083e-03
3.820209e-03
4.213207e-03
4.681131e-03
5.074590e-03
5.242935e-03
5.102886e-03
4.703622e-03
4.222016e-03
3.869726e-03
3.781385e-03
3.966395e-03
4.329672e-03
4.716310e-03
4.961913e-03
4.958169e-03
4.716132e-03
4.371733e-03
4.107171e-03
4.042859e-03
4.182306e-03
4.431383e-03
0.000000e+00
0.000000e+00
-0.000000e+00
-0.000000e+00
-0.000000e+00
1.975786e-19
1.094574e-18
-3.556414e-18
2.051851e-18
3.723376e-18
1.139070e-18
2.856997e-18
1.276368e-18
2.518310e-18
7.905650e-20
2.466051e-18
-3.907769e-18
-1.722965e-18
-5.496603e-18
-6.222134e-18
1.906386e-19
-1.726590e-18
-5.421426e-18
2.620816e-18
6.244905e-18
6.999718e-18
-3.127780e-18
-1.137141e-17
-6.684081e-18
-3.563280e-17
-2.183994e-16
-9.280665e-16
-3.454016e-15
-1.054809e-14
-2.238868e-14
-9.551728e-16
3.080140e-13
2.049549e-12
9.310413e-12
3.399191e-11
1.035339e-10
2.608765e-10
5.090660e-10
5.649173e-10
-8.522126e-10
-7.533637e-09
-2.800639e-08
-7.669014e-08
-1.685483e-07
-2.968937e-07
-3.822046e-07
-1.902710e-07
7.478581e-07
3.121840e-06
7.590287e-06
1.419071e-05
2.154380e-05
2.631171e-05
2.345078e-05
7.321211e-06
-2.687716e-05
-8.210080e-05
-1.588328e-04
-2.544887e-04
-3.621630e-04
-4.677957e-04
-5.472868e-04
-5.662725e-04
-4.851952e-04
-2.718283e-04
8.059905e-05
5.422208e-04
1.052432e-03
1.540730e-03
1.950171e-03
2.250557e-03
2.438505e-03
2.529416e-03
2.547426e-03
2.517344e-03
2.460106e-03
2.391304e-03
2.321570e-03
2.257710e-03
2.203907e-03
2.162740e-03
2.135924e-03
2.124836e-03
2.130848e-03
2.155498e-03
2.200508e-03
2.267641e-03
2.358360e-03
2.473289e-03
2.611446e-03
2.769248e-03
2.939352e-03
3.109576e-03
3.262433e-03
3.376123e-03
3.427807e-03
3.399261e-03
3.283660e-03
3.090839e-03
2.848281e-03
2.596638e-03
2.381099e-03
2.241804e-03
2.206452e-03
2.286411e-03
2.475327e-03
2.747906e-03
3.057369e-03
3.334088e-03
3.494455e-03
3.469124e-03
3.243372e-03
2.880566e-03
2.503011e-03
2.238347e-03
2.168207e-03
2.307504e-03
2.610806e-03
2.985800e-03
3.307153e-03
3.446923e-03
3.333974e-03
3.010692e-03
2.626518e-03
2.356161e-03
2.305914e-03
2.475225e-03
2.776379e-03
3.075702e-03
3.240449e-03
3.196407e-03
2.975209e-03
2.703545e-03
2.525866e-03
2.519463e-03
0.000000e+00
0.000000e+00
-0.000000e+00
-0.000000e+00
-0.000000e+00
-1.383050e-18
3.951571e-18
2.370943e-18
-1.975786e-19
-4.255831e-18
-2.477624e-18
2.385775e-18
2.032256e-18
1.347261e-18
-3.527435e-18
1.064902e-18
-1.604301e-18
-8.213907e-19
6.671193e-18
2.829493e-18
4.364224e-19
-4.553438e-18
3.596664e-18
7.454100e-18
1.106658e-17
5.200242e-18
-4.327743e-19
-4.198589e-18
-2.689887e-17
-9.302793e-17
-3.640551e-16
-1.229719e-15
-3.110012e-15
-2.237667e-15
3.485102e-14
2.862399e-13
1.487503e-12
6.128735e-12
2.107502e-11
6.064336e-11
1.402391e-10
2.215800e-10
4.085316e-12
-1.639070e-09
-7.786977e-09
-2.490003e-08
-6.265897e-08
-1.269379e-07
-1.964150e-07
-1.729978e-07
1.900146e-07
1.338612e-06
3.840989e-06
8.038551e-06
1.337763e-05
1.766239e-05
1.677177e-05
5.238278e-06
-2.245551e-05
-7.054548e-05
-1.406872e-04
-2.303710e-04
-3.297994e-04
-4.162445e-04
-4.498372e-04
-3.771690e-04
-1.500592e-04
2.398856e-04
7.383005e-04
1.244678e-03
1.659813e-03
1.926201e-03
2.037860e-03
2.025150e-03
1.931609e-03
1.796617e-03
1.648117e-03
1.502605e-03
1.368195e-03
1.247940e-03
1.142238e-03
1.050262e-03
9.707029e-04
9.021592e-04
8.433595e-04
7.933099e-04
7.514021e-04
7.174842e-04
6.918919e-04
6.754307e-04
6.693040e-04
6.749891e-04
6.940633e-04
7.279846e-04
7.778277e-04
8.439701e-04
9.257250e-04
1.020914e-03
1.125372e-03
1.232368e-03
1.332012e-03
1.410994e-03
1.453437e-03
1.443831e-03
1.372232e-03
1.240186e-03
1.064347e-03
8.751070e-04
7.101315e-04
6.054924e-04
5.878368e-04
6.691232e-04
8.431215e-04
1.082460e-03
1.336996e-03
1.537612e-03
1.612058e-03
1.515363e-03
1.262106e-03
9.342035e-04
6.494675e-04
5.088795e-04
5.573678e-04
7.747481e-04
1.087348e-03
1.387275e-03
1.560097e-03
1.528045e-03
1.297734e-03
9.732436e-04
7.063224e-04
6.130513e-04
7.190785e-04
9.609274e-04
1.223560e-03
1.388509e-03
1.383126e-03
1.218949e-03
9.908640e-04
8.228487e-04
0.000000e+00
0.000000e+00
-0.000000e+00
3.951571e-19
-1.975786e-19
-1.489731e-18
2.173364e-18
-3.541582e-18
-1.565796e-18
-2.127916e-18
-7.903142e-19
-2.616827e-18
4.120029e-18
2.299365e-18
-1.729633e-18
-2.741734e-18
-4.527353e-18
-2.690019e-18
-9.022045e-19
-2.994373e-18
2.103671e-18
7.284071e-18
1.056707e-17
2.196272e-18
-3.760912e-19
-7.218634e-18
-2.413676e-18
7.010051e-18
-3.296500e-17
-1.259684e-16
-3.431481e-16
-4.201179e-16
3.317943e-15
3.404396e-14
2.021077e-13
9.380516e-13
3.633080e-12
1.187414e-11
3.197248e-11
6.447702e-11
5.664011e-11
-2.619743e-10
-1.800463e-09
-6.889626e-09
-2.006662e-08
-4.699224e-08
-8.661486e-08
-1.082413e-07
-6.270022e-09
4.582275e-07
1.676414e-06
4.056487e-06
7.601812e-06
1.121607e-05
1.206641e-05
5.537979e-06
-1.395616e-05
-5.162598e-05
-1.106039e-04
-1.894427e-04
-2.772469e-04
-3.448523e-04
-3.389553e-04
-1.917190e-04
1.378257e-04
6.088492e-04
1.098712e-03
1.475096e-03
1.668625e-03
1.687670e-03
1.585847e-03
1.422519e-03
1.241321e-03
1.066908e-03
9.102840e-04
7.748511e-04
6.603013e-04
5.645972e-04
4.849593e-04
4.184317e-04
3.622354e-04
3.139743e-04
2.717292e-04
2.340806e-04
2.000895e-04
1.692567e-04
1.414658e-04
1.169088e-04
9.599585e-05
7.925547e-05
6.724073e-05
6.046289e-05
5.937632e-05
6.443351e-05
7.621546e-05
9.561539e-05
1.240075e-04
1.632662e-04
2.154357e-04
2.818366e-04
3.615315e-04
4.494104e-04
5.346641e-04
6.008254e-04
6.284877e-04
6.009173e-04
5.111742e-04
3.678003e-04
1.958722e-04
3.201833e-05
-8.491417e-05
-1.237498e-04
-6.832451e-05
7.818245e-05
2.907106e-04
5.218396e-04
7.070827e-04
7.808422e-04
7.029583e-04
4.851132e-04
1.977809e-04
-5.481402e-05
-1.805361e-04
-1.372894e-04
5.575433e-05
3.294204e-04
5.859828e-04
7.274046e-04
6.921620e-04
4.908630e-04
2.137384e-04
-1.016085e-05
-8.222097e-05
1.724826e-05
2.290462e-04
4.504586e-04
5.810554e-04
5.651131e-04
4.192883e-04
2.270033e-04
0.000000e+00
0.000000e+00
-0.000000e+00
-1.185471e-18
9.878928e-19
1.778207e-18
-2.884755e-19
1.185471e-18
-1.109406e-18
-4.179766e-18
-1.688672e-19
2.726910e-18
2.786781e-18
-1.984768e-18
8.451293e-20
1.082809e-18
4.843226e-18
-1.438486e-18
2.109539e-18
4.638745e-18
3.267504e-19
1.800988e-18
1.436543e-17
1.901249e-17
1.005284e-17
-2.569490e-17
-3.079592e-17
-2.332489e-17
-2.447610e-17
-3.012076e-17
2.780593e-16
3.453743e-15
2.330626e-14
1.214264e-13
5.279429e-13
1.950237e-12
6.040210e-12
1.477111e-11
2.230078e-11
-2.252111e-11
-3.374207e-10
-1.602295e-09
-5.462602e-09
-1.483743e-08
-3.229567e-08
-5.217061e-08
-3.940246e-08
1.095380e-07
6.100228e-07
1.777952e-06
3.847164e-06
6.504994e-06
8.213540e-06
5.704880e-06
-5.882506e-06
-3.204390e-05
-7.729286e-05
-1.422528e-04
-2.179754e-04
-2.744532e-04
-2.514440e-04
-7.175260e-05
2.957174e-04
7.665129e-04
1.177250e-03
1.404999e-03
1.432395e-03
1.318130e-03
1.136485e-03
9.416967e-04
7.625563e-04
6.101588e-04
4.859727e-04
3.869549e-04
3.084515e-04
2.457928e-04
1.950270e-04
1.530941e-04
1.177138e-04
8.719733e-05
6.029341e-05
3.609176e-05
1.396919e-05
-6.447165e-06
-2.531840e-05
-4.264462e-05
-5.833088e-05
-7.226417e-05