# vtk DataFile Version 3.0
Resultado Projeto 3
ASCII
DATASET STRUCTURED_GRID
DIMENSIONS 140 60 1 
POINTS 8400 double
0.000000e+00 0.000000e+00 0.000000e+00
2.517986e-02 0.000000e+00 0.000000e+00
5.035971e-02 0.000000e+00 0.000000e+00
7.553957e-02 0.000000e+00 0.000000e+00
1.007194e-01 0.000000e+00 0.000000e+00
1.258993e-01 0.000000e+00 0.000000e+00
1.510791e-01 0.000000e+00 0.000000e+00
1.762590e-01 0.000000e+00 0.000000e+00
2.014388e-01 0.000000e+00 0.000000e+00
2.266187e-01 0.000000e+00 0.000000e+00
2.517986e-01 0.000000e+00 0.000000e+00
2.769784e-01 0.000000e+00 0.000000e+00
3.021583e-01 0.000000e+00 0.000000e+00
3.273381e-01 0.000000e+00 0.000000e+00
3.525180e-01 0.000000e+00 0.000000e+00
3.776978e-01 0.000000e+00 0.000000e+00
4.028777e-01 0.000000e+00 0.000000e+00
4.280576e-01 0.000000e+00 0.000000e+00
4.532374e-01 0.000000e+00 0.000000e+00
4.784173e-01 0.000000e+00 0.000000e+00
5.035971e-01 0.000000e+00 0.000000e+00
5.287770e-01 0.000000e+00 0.000000e+00
5.539568e-01 0.000000e+00 0.000000e+00
5.791367e-01 0.000000e+00 0.000000e+00
6.043165e-01 0.000000e+00 0.000000e+00
6.294964e-01 0.000000e+00 0.000000e+00
6.546763e-01 0.000000e+00 0.000000e+00
6.798561e-01 0.000000e+00 0.000000e+00
7.050360e-01 0.000000e+00 0.000000e+00
7.302158e-01 0.000000e+00 0.000000e+00
7.553957e-01 0.000000e+00 0.000000e+00
7.805755e-01 0.000000e+00 0.000000e+00
8.057554e-01 0.000000e+00 0.000000e+00
8.309353e-01 0.000000e+00 0.000000e+00
8.561151e-01 0.000000e+00 0.000000e+00
8.812950e-01 0.000000e+00 0.000000e+00
9.064748e-01 0.000000e+00 0.000000e+00
9.316547e-01 0.000000e+00 0.000000e+00
9.568345e-01 0.000000e+00 0.000000e+00
9.820144e-01 0.000000e+00 0.000000e+00
1.007194e+00 0.000000e+00 0.000000e+00
1.032374e+00 0.000000e+00 0.000000e+00
1.057554e+00 0.000000e+00 0.000000e+00
1.082734e+00 0.000000e+00 0.000000e+00
1.107914e+00 0.000000e+00 0.000000e+00
1.133094e+00 0.000000e+00 0.000000e+00
1.158273e+00 0.000000e+00 0.000000e+00
1.183453e+00 0.000000e+00 0.000000e+00
1.208633e+00 0.000000e+00 0.000000e+00
1.233813e+00 0.000000e+00 0.000000e+00
1.258993e+00 0.000000e+00 0.000000e+00
1.284173e+00 0.000000e+00 0.000000e+00
1.309353e+00 0.000000e+00 0.000000e+00
1.334532e+00 0.000000e+00 0.000000e+00
1.359712e+00 0.000000e+00 0.000000e+00
1.384892e+00 0.000000e+00 0.000000e+00
1.410072e+00 0.000000e+00 0.000000e+00
1.435252e+00 0.000000e+00 0.000000e+00
1.460432e+00 0.000000e+00 0.000000e+00
1.485612e+00 0.000000e+00 0.000000e+00
1.510791e+00 0.000000e+00 0.000000e+00
1.535971e+00 0.000000e+00 0.000000e+00
1.561151e+00 0.000000e+00 0.000000e+00
1.586331e+00 0.000000e+00 0.000000e+00
1.611511e+00 0.000000e+00 0.000000e+00
1.636691e+00 0.000000e+00 0.000000e+00
1.661871e+00 0.000000e+00 0.000000e+00
1.687050e+00 0.000000e+00 0.000000e+00
1.712230e+00 0.000000e+00 0.000000e+00
1.737410e+00 0.000000e+00 0.000000e+00
1.762590e+00 0.000000e+00 0.000000e+00
1.787770e+00 0.000000e+00 0.000000e+00
1.812950e+00 0.000000e+00 0.000000e+00
1.838129e+00 0.000000e+00 0.000000e+00
1.863309e+00 0.000000e+00 0.000000e+00
1.888489e+00 0.000000e+00 0.000000e+00
1.913669e+00 0.000000e+00 0.000000e+00
1.938849e+00 0.000000e+00 0.000000e+00
1.964029e+00 0.000000e+00 0.000000e+00
1.989209e+00 0.000000e+00 0.000000e+00
2.014388e+00 0.000000e+00 0.000000e+00
2.039568e+00 0.000000e+00 0.000000e+00
2.064748e+00 0.000000e+00 0.000000e+00
2.089928e+00 0.000000e+00 0.000000e+00
2.115108e+00 0.000000e+00 0.000000e+00
2.140288e+00 0.000000e+00 0.000000e+00
2.165468e+00 0.000000e+00 0.000000e+00
2.190647e+00 0.000000e+00 0.000000e+00
2.215827e+00 0.000000e+00 0.000000e+00
2.241007e+00 0.000000e+00 0.000000e+00
2.266187e+00 0.000000e+00 0.000000e+00
2.291367e+00 0.000000e+00 0.000000e+00
2.316547e+00 0.000000e+00 0.000000e+00
2.341727e+00 0.000000e+00 0.000000e+00
2.366906e+00 0.000000e+00 0.000000e+00
2.392086e+00 0.000000e+00 0.000000e+00
2.417266e+00 0.000000e+00 0.000000e+00
2.442446e+00 0.000000e+00 0.000000e+00
2.467626e+00 0.000000e+00 0.000000e+00
2.492806e+00 0.000000e+00 0.000000e+00
2.517986e+00 0.000000e+00 0.000000e+00
2.543165e+00 0.000000e+00 0.000000e+00
2.568345e+00 0.000000e+00 0.000000e+00
2.593525e+00 0.000000e+00 0.000000e+00
2.618705e+00 0.000000e+00 0.000000e+00
2.643885e+00 0.000000e+00 0.000000e+00
2.669065e+00 0.000000e+00 0.000000e+00
2.694245e+00 0.000000e+00 0.000000e+00
2.719424e+00 0.000000e+00 0.000000e+00
2.744604e+00 0.000000e+00 0.000000e+00
2.769784e+00 0.000000e+00 0.000000e+00
2.794964e+00 0.000000e+00 0.000000e+00
2.820144e+00 0.000000e+00 0.000000e+00
2.845324e+00 0.000000e+00 0.000000e+00
2.870504e+00 0.000000e+00 0.000000e+00
2.895683e+00 0.000000e+00 0.000000e+00
2.920863e+00 0.000000e+00 0.000000e+00
2.946043e+00 0.000000e+00 0.000000e+00
2.971223e+00 0.000000e+00 0.000000e+00
2.996403e+00 0.000000e+00 0.000000e+00
3.021583e+00 0.000000e+00 0.000000e+00
3.046763e+00 0.000000e+00 0.000000e+00
3.071942e+00 0.000000e+00 0.000000e+00
3.097122e+00 0.000000e+00 0.000000e+00
3.122302e+00 0.000000e+00 0.000000e+00
3.147482e+00 0.000000e+00 0.000000e+00
3.172662e+00 0.000000e+00 0.000000e+00
3.197842e+00 0.000000e+00 0.000000e+00
3.223022e+00 0.000000e+00 0.000000e+00
3.248201e+00 0.000000e+00 0.000000e+00
3.273381e+00 0.000000e+00 0.000000e+00
3.298561e+00 0.000000e+00 0.000000e+00
3.323741e+00 0.000000e+00 0.000000e+00
3.348921e+00 0.000000e+00 0.000000e+00
3.374101e+00 0.000000e+00 0.000000e+00
3.399281e+00 0.000000e+00 0.000000e+00
3.424460e+00 0.000000e+00 0.000000e+00
3.449640e+00 0.000000e+00 0.000000e+00
3.474820e+00 0.000000e+00 0.000000e+00
3.500000e+00 0.000000e+00 0.000000e+00
0.000000e+00 1.694915e-02 0.000000e+00
2.517986e-02 1.694915e-02 0.000000e+00
5.035971e-02 1.694915e-02 0.000000e+00
7.553957e-02 1.694915e-02 0.000000e+00
1.007194e-01 1.694915e-02 0.000000e+00
1.258993e-01 1.694915e-02 0.000000e+00
1.510791e-01 1.694915e-02 0.000000e+00
1.762590e-01 1.694915e-02 0.000000e+00
2.014388e-01 1.694915e-02 0.000000e+00
2.266187e-01 1.694915e-02 0.000000e+00
2.517986e-01 1.694915e-02 0.000000e+00
2.769784e-01 1.694915e-02 0.000000e+00
3.021583e-01 1.694915e-02 0.000000e+00
3.273381e-01 1.694915e-02 0.000000e+00
3.525180e-01 1.694915e-02 0.000000e+00
3.776978e-01 1.694915e-02 0.000000e+00
4.028777e-01 1.694915e-02 0.000000e+00
4.280576e-01 1.694915e-02 0.000000e+00
4.532374e-01 1.694915e-02 0.000000e+00
4.784173e-01 1.694915e-02 0.000000e+00
5.035971e-01 1.694915e-02 0.000000e+00
5.287770e-01 1.694915e-02 0.000000e+00
5.539568e-01 1.694915e-02 0.000000e+00
5.791367e-01 1.694915e-02 0.000000e+00
6.043165e-01 1.694915e-02 0.000000e+00
6.294964e-01 1.694915e-02 0.000000e+00
6.546763e-01 1.694915e-02 0.000000e+00
6.798561e-01 1.694915e-02 0.000000e+00
7.050360e-01 1.694915e-02 0.000000e+00
7.302158e-01 1.694915e-02 0.000000e+00
7.553957e-01 1.694915e-02 0.000000e+00
7.805755e-01 1.694915e-02 0.000000e+00
8.057554e-01 1.694915e-02 0.000000e+00
8.309353e-01 1.694915e-02 0.000000e+00
8.561151e-01 1.694915e-02 0.000000e+00
8.812950e-01 1.694915e-02 0.000000e+00
9.064748e-01 1.694915e-02 0.000000e+00
9.316547e-01 1.694915e-02 0.000000e+00
9.568345e-01 1.694915e-02 0.000000e+00
9.820144e-01 1.694915e-02 0.000000e+00
1.007194e+00 1.694915e-02 0.000000e+00
1.032374e+00 1.694915e-02 0.000000e+00
1.057554e+00 1.694915e-02 0.000000e+00
1.082734e+00 1.694915e-02 0.000000e+00
1.107914e+00 1.694915e-02 0.000000e+00
1.133094e+00 1.694915e-02 0.000000e+00
1.158273e+00 1.694915e-02 0.000000e+00
1.183453e+00 1.694915e-02 0.000000e+00
1.208633e+00 1.694915e-02 0.000000e+00
1.233813e+00 1.694915e-02 0.000000e+00
1.258993e+00 1.694915e-02 0.000000e+00
1.284173e+00 1.694915e-02 0.000000e+00
1.309353e+00 1.694915e-02 0.000000e+00
1.334532e+00 1.694915e-02 0.000000e+00
1.359712e+00 1.694915e-02 0.000000e+00
1.384892e+00 1.694915e-02 0.000000e+00
1.410072e+00 1.694915e-02 0.000000e+00
1.435252e+00 1.694915e-02 0.000000e+00
1.460432e+00 1.694915e-02 0.000000e+00
1.485612e+00 1.694915e-02 0.000000e+00
1.510791e+00 1.694915e-02 0.000000e+00
1.535971e+00 1.694915e-02 0.000000e+00
1.561151e+00 1.694915e-02 0.000000e+00
1.586331e+00 1.694915e-02 0.000000e+00
1.611511e+00 1.694915e-02 0.000000e+00
1.636691e+00 1.694915e-02 0.000000e+00
1.661871e+00 1.694915e-02 0.000000e+00
1.687050e+00 1.694915e-02 0.000000e+00
1.712230e+00 1.694915e-02 0.000000e+00
1.737410e+00 1.694915e-02 0.000000e+00
1.762590e+00 1.694915e-02 0.000000e+00
1.787770e+00 1.694915e-02 0.000000e+00
1.812950e+00 1.694915e-02 0.000000e+00
1.838129e+00 1.694915e-02 0.000000e+00
1.863309e+00 1.694915e-02 0.000000e+00
1.888489e+00 1.694915e-02 0.000000e+00
1.913669e+00 1.694915e-02 0.000000e+00
1.938849e+00 1.694915e-02 0.000000e+00
1.964029e+00 1.694915e-02 0.000000e+00
1.989209e+00 1.694915e-02 0.000000e+00
2.014388e+00 1.694915e-02 0.000000e+00
2.039568e+00 1.694915e-02 0.000000e+00
2.064748e+00 1.694915e-02 0.000000e+00
2.089928e+00 1.694915e-02 0.000000e+00
2.115108e+00 1.694915e-02 0.000000e+00
2.140288e+00 1.694915e-02 0.000000e+00
2.165468e+00 1.694915e-02 0.000000e+00
2.190647e+00 1.694915e-02 0.000000e+00
2.215827e+00 1.694915e-02 0.000000e+00
2.241007e+00 1.694915e-02 0.000000e+00
2.266187e+00 1.694915e-02 0.000000e+00
2.291367e+00 1.694915e-02 0.000000e+00
2.316547e+00 1.694915e-02 0.000000e+00
2.341727e+00 1.694915e-02 0.000000e+00
2.366906e+00 1.694915e-02 0.000000e+00
2.392086e+00 1.694915e-02 0.000000e+00
2.417266e+00 1.694915e-02 0.000000e+00
2.442446e+00 1.694915e-02 0.000000e+00
2.467626e+00 1.694915e-02 0.000000e+00
2.492806e+00 1.694915e-02 0.000000e+00
2.517986e+00 1.694915e-02 0.000000e+00
2.543165e+00 1.694915e-02 0.000000e+00
2.568345e+00 1.694915e-02 0.000000e+00
2.593525e+00 1.694915e-02 0.000000e+00
2.618705e+00 1.694915e-02 0.000000e+00
2.643885e+00 1.694915e-02 0.000000e+00
2.669065e+00 1.694915e-02 0.000000e+00
2.694245e+00 1.694915e-02 0.000000e+00
2.719424e+00 1.694915e-02 0.000000e+00
2.744604e+00 1.694915e-02 0.000000e+00
2.769784e+00 1.694915e-02 0.000000e+00
2.794964e+00 1.694915e-02 0.000000e+00
2.820144e+00 1.694915e-02 0.000000e+00
[...]
POINT_DATA 8400
SCALARS RES_Cont double
LOOKUP_TABLE default
0.000000e+00
0.000000e+00
0.000000e+00
0.000000e+00
0.000000e+00
0.000000e+00
0.000000e+00
0.000000e+00
0.000000e+00
0.000000e+00
0.000000e+00
0.000000e+00
0.000000e+00
0.000000e+00
0.000000e+00
0.000000e+00
0.000000e+00
0.000000e+00
0.000000e+00
0.000000e+00
0.000000e+00
0.000000e+00
0.000000e+00
0.000000e+00
0.000000e+00
0.000000e+00
0.000000e+00
0.000000e+00
0.000000e+00
0.000000e+00
0.000000e+00
0.000000e+00
0.000000e+00
0.000000e+00
0.000000e+00
0.000000e+00
0.000000e+00
0.000000e+00
0.000000e+00
0.000000e+00
0.000000e+00
0.000000e+00
0.000000e+00
0.000000e+00
0.000000e+00
0.000000e+00
0.000000e+00
0.000000e+00
0.000000e+00
0.000000e+00
0.000000e+00
0.000000e+00
0.000000e+00
0.000000e+00
0.000000e+00
0.000000e+00
0.000000e+00
0.000000e+00
0.000000e+00
0.000000e+00
0.000000e+00
0.000000e+00
0.000000e+00
0.000000e+00
0.000000e+00
0.000000e+00
0.000000e+00
0.000000e+00
0.000000e+00
0.000000e+00
0.000000e+00
0.000000e+00
0.000000e+00
0.000000e+00
0.000000e+00
0.000000e+00
0.000000e+00
0.000000e+00
0.000000e+00
0.000000e+00
0.000000e+00
0.000000e+00
0.000000e+00
0.000000e+00
0.000000e+00
0.000000e+00
0.000000e+00
0.000000e+00
0.000000e+00
0.000000e+00
0.000000e+00
0.000000e+00
0.000000e+00
0.000000e+00
0.000000e+00
0.000000e+00
0.000000e+00
0.000000e+00
0.000000e+00
0.000000e+00
0.000000e+00
0.000000e+00
0.000000e+00
0.000000e+00
0.000000e+00
0.000000e+00
0.000000e+00
0.000000e+00
0.000000e+00
0.000000e+00
0.000000e+00
0.000000e+00
0.000000e+00
0.000000e+00
0.000000e+00
0.000000e+00
0.000000e+00
0.000000e+00
0.000000e+00
0.000000e+00
0.000000e+00
0.000000e+00
0.000000e+00
0.000000e+00
0.000000e+00
0.000000e+00
0.000000e+00
0.000000e+00
0.000000e+00
0.000000e+00
0.000000e+00
0.000000e+00
0.000000e+00
0.000000e+00
0.000000e+00
0.000000e+00
0.000000e+00
0.000000e+00
0.000000e+00
0.000000e+00
0.000000e+00
-0.000000e+00
-0.000000e+00
-0.000000e+00
-0.000000e+00
-0.000000e+00
-0.000000e+00
3.951571e-19
-2.766100e-18
2.082467e-18
-9.089700e-20
-4.179766e-18
-8.663792e-19
2.416391e-18
2.578590e-19
1.793992e-18
-1.484016e-18
-2.249020e-18
-5.253776e-19
1.909380e-18
3.100927e-19
4.132212e-18
-7.431019e-19
1.456216e-18
-3.120889e-18
3.624877e-19
4.338613e-18
-2.664903e-18
1.595629e-19
1.747706e-18
1.664343e-18
-2.373046e-18
-2.398896e-18
3.644665e-18
4.348978e-18
6.850600e-20
-7.551075e-19
2.530652e-18
4.542930e-18
9.264816e-19
4.364301e-18
1.419136e-18
-2.115780e-18
1.657683e-18
1.176758e-18
2.626010e-18
-1.883295e-18
-2.969942e-18
2.386271e-19
-3.340019e-19
4.791468e-18
-2.061389e-18
7.227134e-19
-8.675535e-19
-1.422625e-18
-4.378572e-18
-6.853208e-18
-3.452436e-18
-2.657881e-18
-5.382752e-19
-6.935473e-18
-8.420942e-18
7.291003e-18
-1.460460e-17
-5.185912e-18
2.194821e-18
1.067982e-17
1.112648e-17
-4.684206e-18
-8.592123e-18
-8.739876e-18
-5.331203e-18
-9.884181e-18
-4.635703e-18
1.220256e-17
1.509688e-17
-2.820443e-17
-1.013304e-18
1.094419e-17
7.240892e-18
2.224497e-17
1.416018e-17
-9.753343e-18
7.595512e-18
-3.334348e-17
1.396778e-19
5.966274e-18
-3.880574e-18
8.575532e-18
-1.911883e-17
-5.682517e-19
-7.981295e-18
1.815870e-17
1.445804e-17
6.144150e-17
9.953497e-18
5.028680e-18
1.469979e-17
1.604789e-17
4.801047e-17
1.428966e-16
3.449365e-16
9.320658e-16
2.648570e-15
7.130006e-15
1.895045e-14
4.902364e-14
1.238722e-13
3.062859e-13
7.407028e-13
1.752945e-12
4.060688e-12
9.209722e-12
2.045509e-11
4.449814e-11
9.482805e-11
1.979898e-10
4.050444e-10
8.119807e-10
1.595096e-09
3.070628e-09
5.792344e-09
1.070641e-08
1.938918e-08
3.439982e-08
5.978323e-08
1.017576e-07
1.696089e-07
2.767884e-07
4.421607e-07
6.912800e-07
1.057476e-06
1.582432e-06
2.315838e-06
3.313667e-06
4.634671e-06
6.334887e-06
8.460280e-06
1.103815e-05
0.000000e+00
0.000000e+00
-0.000000e+00
-0.000000e+00
-0.000000e+00
-0.000000e+00
-0.000000e+00
3.951571e-19
-5.927357e-19
1.778207e-18
7.903142e-19
-4.164934e-18
-6.994172e-19
5.684329e-18
1.580628e-18
-2.141795e-18
-1.256773e-18
-1.647168e-18
3.473138e-18
-1.541714e-18
-2.948863e-18
-2.651847e-18
-1.188830e-18
-2.499037e-19
-1.506236e-18
1.050624e-18
-3.108179e-19
-1.920235e-18
-4.955105e-19
1.166480e-18
3.671948e-19
-3.355834e-18
-1.155415e-18
-1.335101e-18
5.316550e-19
2.620430e-18
1.400238e-18
-2.107697e-18
-2.740523e-18
-3.314508e-18
2.080240e-18
4.323399e-18
3.989923e-18
8.413603e-19
2.553488e-18
-3.045151e-18
-2.181029e-19
2.445635e-18
5.353923e-18
4.458704e-18
-3.347399e-18
-2.915960e-18
-3.596612e-18
-4.061691e-18
-4.792456e-18
-2.863639e-18
-1.409819e-18
-1.637492e-18
-8.178926e-19
-1.734597e-18
7.233725e-18
3.496925e-18
-1.219484e-18
-6.751052e-19
-5.974818e-18
1.231143e-18
2.457913e-18
1.552308e-17
-8.329913e-18
-1.033313e-17
-1.091803e-17
-1.261680e-17
2.176950e-17
1.373675e-17
-8.321918e-18
-1.201622e-17
-3.047321e-17
-2.834904e-17
2.005408e-17
2.118490e-17
1.049912e-17
1.786539e-17
9.201722e-18
2.523137e-17
6.123971e-18
2.149406e-18
-6.457755e-18
-1.150235e-17
-1.138715e-17
1.660635e-18
-1.383882e-17
-1.613162e-17
-1.230715e-17
6.537945e-18
1.839114e-17
2.257498e-17
3.152024e-17
1.565038e-17
2.912374e-17
2.746162e-17
4.528450e-17
1.278890e-16
3.426302e-16
9.269057e-16
2.598219e-15
7.083496e-15
1.882149e-14
4.863721e-14
1.229850e-13
3.040875e-13
7.356467e-13
1.741512e-12
4.035276e-12
9.154554e-12
2.033764e-11
4.425305e-11
9.432609e-11
1.969796e-10
4.030453e-10
8.080884e-10
1.587640e-09
3.056580e-09
5.766336e-09
1.065915e-08
1.930506e-08
3.425333e-08
5.953407e-08
1.013442e-07
1.689408e-07
2.757373e-07
4.405518e-07
6.888838e-07
1.054004e-06
1.577533e-06
2.309105e-06
3.304643e-06
4.622867e-06
6.319801e-06
8.441431e-06
1.101511e-05
0.000000e+00
0.000000e+00
-0.000000e+00
-0.000000e+00
-0.000000e+00
-0.000000e+00
3.951571e-19
-7.903142e-19
3.860674e-18
3.465517e-18
1.669620e-19
-1.459115e-18
6.233522e-19
1.808823e-18
-3.433948e-18
-2.306852e-18
-4.598872e-18
-2.049945e-18
1.842022e-18
-2.068195e-18
-2.390579e-18
3.065664e-18
1.190351e-18
1.120886e-18
2.665746e-18
3.300521e-18
-3.529972e-19
-4.207158e-18
-5.929693e-18
3.142990e-18
2.466719e-18
2.774320e-18
4.709713e-18
5.584901e-18
3.222058e-18
-2.610998e-18
-1.764448e-18
-9.355178e-19
5.835725e-18
3.837747e-18
1.168073e-18
-1.554788e-18
2.418748e-19
-2.019009e-18
-1.395307e-19
3.674484e-18
4.349551e-18
4.515130e-18
6.078211e-18
3.930639e-19
1.033836e-18
6.756216e-19
3.537187e-19
-3.543045e-18
-5.983437e-18
-5.899595e-18
-7.032106e-20
6.650691e-18
5.242383e-18
3.020889e-18
3.497173e-18
1.677219e-17
3.222946e-18
3.080427e-18
-4.012514e-18
-1.495105e-18
-4.053030e-18
6.415958e-19
-1.598493e-17
-1.622233e-17
1.930874e-17
1.016549e-17
1.484333e-17
3.204961e-17
1.438012e-17
-1.258784e-17
-4.724958e-17
-2.458672e-17
2.551537e-18
-7.690830e-18
-1.706220e-17
6.106881e-18
1.286502e-17
1.915052e-17
1.621232e-17
5.572717e-18
7.703201e-18
-9.795987e-18
-7.931596e-18
-6.849160e-18
6.662991e-18
-2.837662e-17
-1.433847e-17
9.631134e-18
1.906217e-18
1.105181e-17
1.048264e-17
-2.298688e-19
-3.999602e-18
1.615291e-17
5.907690e-17
1.310045e-16
3.159880e-16
9.150478e-16
2.563451e-15
7.008129e-15
1.856404e-14
4.801841e-14
1.214101e-13
3.003644e-13
7.270089e-13
1.721833e-12
3.991663e-12
9.059845e-12
2.013624e-11
4.383296e-11
9.346610e-11
1.952501e-10
3.996263e-10
8.014415e-10
1.574931e-09
3.032694e-09
5.722244e-09
1.057931e-08
1.916343e-08
3.400758e-08
5.911758e-08
1.006557e-07
1.678315e-07
2.739971e-07
4.378944e-07
6.849348e-07
1.048292e-06
1.569488e-06
2.298063e-06
3.289865e-06
4.603565e-06
6.295178e-06
8.410734e-06
1.097770e-05
0.000000e+00
0.000000e+00
-0.000000e+00
-0.000000e+00
-0.000000e+00
-0.000000e+00
-1.185471e-18
-1.778207e-18
5.018387e-19
-7.903142e-19
-3.282770e-18
-2.690035e-18
7.754822e-19
-2.567569e-18
-1.867199e-18
3.484159e-18
3.250249e-18
9.608108e-19
5.714947e-19
3.151698e-18
4.102155e-18
1.042750e-18
-2.586798e-18
5.816246e-19
2.385772e-19
-1.857188e-18
6.896002e-19
1.203048e-18
-3.231563e-18
3.270810e-18
6.215872e-18
-3.184482e-19
1.205540e-18
3.350016e-18
1.247173e-18
-3.827433e-18
-3.681831e-18
1.212710e-18
1.292188e-18
1.684053e-18
6.744768e-19
8.375291e-19
-4.986617e-18
2.239175e-19
-2.155520e-19
-2.109500e-18
-9.195423e-19
3.712573e-19
-2.192567e-18
-9.528374e-19
1.147804e-18
-3.777886e-20
3.531113e-18
7.407485e-18
4.372557e-18
-3.772199e-18
-1.955475e-18
-3.398970e-18
8.902210e-18
2.330220e-17
7.572171e-19
-1.671032e-17
-2.410313e-18
4.599308e-18
-1.494421e-18
-3.839323e-18
-1.006378e-17
-1.559722e-17
-1.143501e-17
-2.513602e-17
7.214913e-18
7.714605e-18
3.502668e-17
2.290430e-17
7.503593e-18
1.623276e-17
-3.484624e-17
-5.716547e-17
-2.449622e-17
-8.476218e-18
1.932103e-18
1.024507e-17
4.482373e-17
1.069930e-17
-4.732766e-18
7.479430e-18
2.515666e-17
3.822874e-17
1.518977e-17
-1.144358e-17
5.423993e-18
1.664046e-17
1.468364e-17
2.132395e-17
-8.149526e-18
-1.389728e-17
-1.839516e-17
1.485900e-18
2.897333e-17
2.059882e-17
6.468279e-17
1.065816e-16
2.929816e-16
8.718379e-16
2.490388e-15
6.851597e-15
1.817698e-14
4.708231e-14
1.191505e-13
2.949730e-13
7.144422e-13
1.693437e-12
3.928726e-12
8.923131e-12
1.984530e-11
4.322586e-11
9.222267e-11
1.927491e-10
3.946833e-10
7.918387e-10
1.556595e-09
2.998296e-09
5.658892e-09
1.046488e-08
1.896098e-08
3.365719e-08
5.852511e-08
9.967803e-08
1.662587e-07
2.715318e-07
4.341317e-07
6.793433e-07
1.040201e-06
1.558087e-06
2.282408e-06
3.268908e-06
4.576195e-06
6.260284e-06
8.367289e-06
1.092487e-05
0.000000e+00
0.000000e+00
-0.000000e+00
-0.000000e+00
-0.000000e+00
-0.000000e+00
-5.927357e-19
9.878928e-19
-4.362513e-18
-4.255831e-18
-1.732758e-18
-1.383050e-18
1.521301e-19
-2.567569e-18
-3.626354e-19
2.245619e-18
-2.424831e-18
5.327126e-18
-2.904785e-18
1.447926e-18
1.485018e-18
8.938437e-19
2.063970e-19
-4.175373e-19
-1.643661e-18
3.185353e-19
1.535274e-19
1.144770e-18
8.446847e-19
4.251063e-18
3.371883e-18
3.051649e-18
-1.541644e-18
-3.057250e-18
3.682130e-18
-2.767742e-18
-4.610796e-18
-2.240880e-18
-3.618052e-18
-1.124593e-18
-1.511359e-18
-4.054487e-18
1.023421e-18
3.534200e-18
-2.427242e-18
-4.136115e-18
-3.101420e-18
-3.321476e-18
3.172988e-19
-3.543252e-18
-1.144757e-17
1.089618e-18
9.183971e-18
1.002425e-17
-4.587562e-18
-3.026703e-18
-3.100997e-18
4.568510e-18
1.420438e-18
1.318437e-17
2.264456e-18
-3.909088e-18
2.672959e-18
-7.256135e-18
-9.761146e-18
-1.887739e-17
-5.215481e-18
-4.410733e-19
-1.782592e-18
6.044729e-18
-1.434135e-17
1.438593e-17
1.780764e-17
3.689185e-17
5.860077e-18
-1.939587e-17
-4.209469e-18
1.373257e-18
-1.859537e-17
-8.066896e-18
-3.716599e-18
-6.118699e-18
-6.493255e-18
2.857252e-17
-3.624217e-18
1.692889e-17
2.172795e-17
2.345958e-18
5.999445e-18
9.292203e-18
-1.139576e-17
-7.021364e-19
2.625811e-17
4.391566e-17
-6.811789e-18
-1.816206e-17
-1.106888e-17
-3.570805e-17
7.385166e-18
7.418277e-18
4.366486e-17
1.307691e-16
2.970421e-16
8.398822e-16
2.421585e-15
6.660649e-15
1.766616e-14
4.585025e-14
1.161636e-13
2.878977e-13
6.980524e-13
1.656157e-12
3.845988e-12
8.743337e-12
1.946229e-11
4.242556e-11
9.058205e-11
1.894473e-10
3.881569e-10
7.791665e-10
1.532426e-09
2.953033e-09
5.575707e-09
1.031499e-08
1.869643e-08
3.320038e-08
5.775414e-08
9.840761e-08
1.642165e-07
2.683316e-07
4.292453e-07
6.720755e-07
1.029673e-06
1.543230e-06
2.261981e-06
3.241534e-06
4.540424e-06
6.214690e-06
8.310585e-06
1.085606e-05
0.000000e+00
0.000000e+00
-0.000000e+00
-0.000000e+00
-0.000000e+00
-0.000000e+00
2.766100e-18
-5.152827e-18
-2.477624e-18
1.930337e-18
-3.161257e-18
-5.046145e-18
-5.227939e-18
9.424443e-19
9.673453e-19
9.851687e-19
1.359636e-18
-5.777967e-18
-1.634434e-20
-3.361351e-18
-2.020985e-18
-1.954558e-18
-3.967699e-18
-7.142311e-19
-2.578344e-18
1.346780e-18
3.157404e-18
-3.385715e-19
4.692545e-19
-2.197058e-18
8.782061e-19
-2.400677e-19
9.292433e-20
-6.229246e-19
-2.974289e-18
-1.365804e-18
-4.535923e-18
8.606943e-19
-1.629068e-18
4.618798e-19
-4.326108e-18
3.033806e-18
3.548969e-18
-2.559218e-18
1.700581e-18
-4.350126e-18
-1.702442e-18
-3.586777e-18
-3.385024e-18
-6.473555e-19
-3.646006e-19
2.310632e-19
4.609418e-18
7.573633e-18
-5.951315e-18
-6.764770e-18
-3.282509e-19
-1.487505e-18
-1.493156e-17
-1.018207e-18
1.070664e-18
-6.626059e-18
1.973505e-18
-6.617723e-18
-5.159977e-18
-1.220950e-17
-1.105640e-17
5.243701e-18
3.807324e-18
1.559905e-17
1.799109e-17
-2.795224e-20
-7.088402e-18
7.054851e-18
1.029946e-17
-1.177285e-17
6.822125e-18
2.388563e-17
6.175131e-18
-6.958890e-18
-3.163364e-17
8.754831e-18
1.219480e-17
-2.329094e-18
-7.363854e-18
-2.224548e-17
-3.337212e-17
1.560266e-18
8.222555e-18
-4.453911e-18
-4.774804e-18
3.032130e-18
9.461218e-18
5.920708e-17
1.873193e-17
-7.763958e-19
-1.914286e-17
7.829852e-18
1.378763e-17
3.618518e-18
3.452917e-17
9.754646e-17
3.053541e-16
8.321995e-16
2.325789e-15
6.393647e-15
1.704061e-14
4.433240e-14
1.124855e-13
2.791670e-13
6.777277e-13
1.610118e-12
3.743648e-12
8.520475e-12
1.898672e-11
4.143048e-11
8.853967e-11
1.853334e-10
3.800231e-10
7.633786e-10
1.502344e-09
2.896782e-09
5.472537e-09
1.012951e-08
1.836982e-08
3.263755e-08
5.680588e-08
9.684690e-08
1.617090e-07
2.644018e-07
4.232406e-07
6.631334e-07
1.016698e-06
1.524888e-06
2.236719e-06
3.207633e-06
4.496090e-06
6.158178e-06
8.240369e-06
1.077101e-05
0.000000e+00
0.000000e+00
-0.000000e+00
-0.000000e+00
-0.000000e+00
1.975786e-19
8.969958e-19
-3.556414e-18
4.712221e-19
3.723376e-18
7.439131e-19
2.856997e-18
8.812112e-19
2.518310e-18
4.742136e-19
2.466051e-18
-5.488397e-18
-9.326510e-19
-2.137768e-18
2.070610e-19
-4.688545e-18
-4.249663e-18
-4.145058e-18
1.647755e-18
3.128144e-18
-2.789265e-18
-4.161122e-18
-2.418186e-18
-4.204551e-18
-4.530236e-18
-1.581703e-18
-5.522010e-18
-7.042314e-19
9.027059e-19
4.279492e-18
1.038692e-18
1.882856e-18
2.715539e-18
2.539538e-18
1.059329e-18
3.757392e-18
4.514792e-18
6.278711e-19
-2.628746e-18
2.961375e-18
-2.723826e-18
-8.857591e-19
-1.579177e-19
-4.015651e-18
-7.857099e-19
2.163275e-18
-3.847574e-18
-2.983570e-18
-1.302789e-17
-3.208340e-18
1.701627e-18
-8.530029e-18
2.641813e-18
6.778051e-18
-1.214800e-17
-1.548958e-17
-4.026180e-18
4.273070e-19
-9.915512e-18
-1.837430e-17
-3.325016e-18
6.701998e-18
8.463730e-18
3.360035e-18
-5.482333e-18
1.841503e-17
1.128310e-17
-8.473156e-18
-7.648086e-18
2.628759e-18
1.730788e-17
1.110004e-18
1.652506e-17
-5.440011e-19
-1.723014e-17
-3.233571e-18
-5.524330e-18
1.544394e-17
6.074756e-18
-7.586804e-18
-1.759965e-17
-2.499453e-17
-3.343790e-17
-1.826088e-17
-1.402218e-17
1.166864e-17
6.956935e-18
1.634361e-17
2.407319e-17
2.098801e-17
3.761127e-17
1.068590e-17
-1.332742e-18
-1.677410e-17
-7.122028e-18
2.183694e-17
9.885051e-17
2.960513e-16
8.184603e-16
2.214895e-15
6.080237e-15
1.632000e-14
4.251929e-14
1.081355e-13
2.688501e-13
6.537800e-13
1.555575e-12
3.622253e-12
8.255621e-12
1.842043e-11
4.024354e-11
8.609991e-11
1.804143e-10
3.702923e-10
7.444931e-10
1.466386e-09
2.829632e-09
5.349587e-09
9.908897e-09
1.798214e-08
3.197074e-08
5.568412e-08
9.500243e-08
1.587469e-07
2.597582e-07
4.161388e-07
6.525427e-07
1.001303e-06
1.503083e-06
2.206631e-06
3.167191e-06
4.443145e-06
6.090676e-06
8.156557e-06
1.066969e-05
0.000000e+00
0.000000e+00
-0.000000e+00
-0.000000e+00
-0.000000e+00
-1.383050e-18
3.951571e-18
3.161257e-18
1.975786e-19
-4.255831e-18
-2.477624e-18
2.385775e-18
3.612884e-18
1.347261e-18
-4.515328e-18
1.064902e-18
-8.139869e-19
-2.797176e-18
-2.440564e-19
-1.517235e-18
-3.029095e-18
-1.894020e-18
2.821182e-18
3.791005e-18
-6.564316e-18
-8.792442e-19
-4.308280e-18
4.557053e-18
-1.985333e-18
-2.662821e-18
-1.307234e-18
4.975771e-19
-2.765737e-18
9.192032e-19
2.932005e-19
2.627138e-18
-1.335061e-18
4.835808e-18
-2.293985e-19
2.454661e-18
-1.925657e-18
7.895546e-19
-5.043925e-18
-8.536272e-19
-5.660513e-19
2.041727e-18
1.983024e-18
5.488707e-18
3.812584e-18
5.060727e-18
6.276962e-18
-2.674872e-18
-5.726258e-18
-1.335627e-17
-5.279323e-18
-7.793187e-18
1.936456e-18
5.624972e-19
1.283900e-18
-2.135571e-19
-1.389741e-18
-2.139080e-18
6.052886e-18
1.053312e-17
-8.885953e-18
-1.062164e-17
4.796179e-18
9.490426e-18
9.032626e-18
-6.216483e-18
2.127912e-17
1.628981e-17
-9.092235e-18
-1.474831e-17
-6.765873e-18
1.802827e-17
1.767362e-17
-9.038772e-18
3.783440e-18
-1.283774e-18
1.826751e-17
6.605995e-18
3.874848e-18
1.133509e-17
-1.345250e-18
3.271213e-18
-2.260007e-17
-4.824449e-17
-1.486630e-17
-5.514225e-20
1.294779e-17
-7.698296e-18
-5.853076e-18
-1.815665e-17
-1.924073e-18
3.439838e-17
1.768174e-17
-8.998930e-18
8.528035e-18
1.050112e-18
2.626739e-17
8.907048e-17
2.735082e-16
7.299802e-16
2.107386e-15
5.821699e-15
1.551656e-14
4.047258e-14
1.031540e-13
2.570529e-13
6.263510e-13
1.493134e-12
3.482838e-12
7.950781e-12
1.776725e-11
3.887193e-11
8.327618e-11
1.747142e-10
3.590092e-10
7.225921e-10
1.424705e-09
2.751866e-09
5.207390e-09
9.654155e-09
1.753520e-08
3.120319e-08
5.439444e-08
9.288350e-08
1.553446e-07
2.544226e-07
4.079711e-07
6.403446e-07
9.835398e-07
1.477871e-06
2.171772e-06
3.120255e-06
4.381624e-06
6.012197e-06
8.059156e-06
1.055210e-05
0.000000e+00
0.000000e+00
-0.000000e+00
3.951571e-19
1.975786e-19
-1.489731e-18
2.173364e-18
-3.739160e-18
-1.565796e-18
-2.127916e-18
-7.903142e-19
-2.616827e-18
3.724872e-18
2.299365e-18
-1.334476e-18
-2.741734e-18
-3.737038e-18
8.663946e-19
1.057796e-18
4.711190e-18
4.915219e-18
4.684933e-18
2.252990e-18
1.982909e-18
-4.216717e-20
3.101851e-18
1.158522e-18
-2.549784e-18
2.435983e-18
-1.573406e-18
2.615466e-19
4.887267e-18
4.184201e-18
2.200026e-18
1.250894e-18
-1.356908e-18
5.362084e-19
1.166549e-18
3.101056e-18
-1.322090e-18
-9.897099e-19
-1.046731e-18
2.215173e-18
-2.556285e-18
-3.253999e-18
-1.011710e-18
7.293706e-18
9.058407e-19
2.419421e-18
3.854222e-18
-6.253028e-18
-1.630842e-18
3.858335e-18
7.972975e-18
5.796424e-18
5.132240e-18
-4.820301e-19
-8.555936e-18
1.323517e-17
1.535894e-17
-2.570944e-18
6.071640e-18
1.144564e-17
3.115965e-18
3.563669e-17
3.708281e-17
1.500234e-17
7.856419e-18
7.137583e-18
5.211365e-18
2.715344e-18
5.060942e-18
2.052988e-17
-7.000876e-18
-7.394032e-18
-7.389217e-18
-7.963994e-18
-1.010730e-17
2.065240e-18
5.917261e-18
2.438652e-17
3.222624e-18
-2.171939e-17
1.137039e-17
-3.945523e-18
2.235912e-19
4.719043e-18
-1.764993e-17
4.441717e-18
-3.632991e-18
8.457044e-18
-1.613548e-17
-4.123217e-17
-4.802793e-17
5.336892e-18
2.649578e-17
8.226407e-19
8.986429e-18
-3.080516e-18
4.114997e-17
4.834861e-17
9.646112e-17
2.353542e-16
6.925459e-16
1.984691e-15
5.469624e-15
1.465742e-14
3.820650e-14
9.763089e-14
2.439224e-13
5.957996e-13
1.423388e-12
3.326765e-12
7.608812e-12
1.703289e-11
3.732675e-11
8.008966e-11
1.682734e-10
3.462490e-10
6.978148e-10
1.377554e-09
2.663942e-09
5.046759e-09
9.366703e-09
1.703147e-08
3.033902e-08
5.294368e-08
9.050108e-08
1.515194e-07
2.484210e-07
3.987745e-07
6.265899e-07
9.634732e-07
1.449334e-06
2.132233e-06
3.066918e-06
4.311610e-06
5.922809e-06
7.948207e-06
1.041828e-05
0.000000e+00
0.000000e+00
-0.000000e+00
-1.185471e-18
-5.927357e-19
1.778207e-18
-2.884755e-19
1.185471e-18
-1.109406e-18
-4.179766e-18
-1.688672e-19
2.726910e-18
3.181938e-18
-1.984768e-18
-7.058013e-19
1.082809e-18
4.645648e-18
-2.623957e-18
-5.200868e-18
-1.486190e-18
9.352707e-19
4.187716e-18
2.114603e-18
1.837030e-18
2.255426e-18
-6.901351e-20
-3.619074e-18
4.140432e-18
5.937118e-18
2.625161e-18
3.441297e-18
-6.738865e-20
3.371942e-18
-5.311583e-19
-3.929238e-18
1.333178e-18
-2.210808e-18
-4.059790e-18
-4.679222e-18
-2.253677e-18
1.004322e-18
1.834196e-18
2.996132e-18
2.409053e-18
9.813872e-19
-3.858239e-18
-5.483574e-19
-3.573016e-18
-1.714467e-18
-2.928334e-18
-7.069377e-18
-6.109300e-18
2.894529e-18
5.079442e-18
1.674843e-18
6.104084e-18
4.169262e-18
8.108997e-18
1.077631e-17
-0.000000e+00
-5.656193e-18
-1.589295e-17
1.761139e-17
3.061837e-17
1.282718e-17
2.747922e-17
2.236233e-19
1.846333e-17
1.577663e-17
-8.798808e-18
2.077149e-17
-5.583362e-18
-1.705290e-18
-7.756169e-18
-2.056899e-17
-2.844470e-17
-2.095016e-17
-1.243427e-17
7.035429e-19
1.869788e-18
7.189014e-18
4.363461e-18
1.193301e-17
-3.988821e-18
-1.365777e-18
1.074283e-17
1.883144e-17
2.620197e-17
2.253392e-18
1.225735e-17
2.757514e-17
-3.194935e-18
-7.285526e-17
-5.508354e-17
-1.691816e-17
-1.769091e-17
-1.212651e-17