# vtk DataFile Version 3.0
Resultado Projeto 3
ASCII
DATASET STRUCTURED_GRID
DIMENSIONS 140 60 1 
POINTS 8400 double
0.000000e+00 0.000000e+00 0.000000e+00
2.517986e-02 0.000000e+00 0.000000e+00
5.035971e-02 0.000000e+00 0.000000e+00
7.553957e-02 0.000000e+00 0.000000e+00
1.007194e-01 0.000000e+00 0.000000e+00
1.258993e-01 0.000000e+00 0.000000e+00
1.510791e-01 0.000000e+00 0.000000e+00
1.762590e-01 0.000000e+00 0.000000e+00
2.014388e-01 0.000000e+00 0.000000e+00
2.266187e-01 0.000000e+00 0.000000e+00
2.517986e-01 0.000000e+00 0.000000e+00
2.769784e-01 0.000000e+00 0.000000e+00
3.021583e-01 0.000000e+00 0.000000e+00
3.273381e-01 0.000000e+00 0.000000e+00
3.525180e-01 0.000000e+00 0.000000e+00
3.776978e-01 0.000000e+00 0.000000e+00
4.028777e-01 0.000000e+00 0.000000e+00
4.280576e-01 0.000000e+00 0.000000e+00
4.532374e-01 0.000000e+00 0.000000e+00
4.784173e-01 0.000000e+00 0.000000e+00
5.035971e-01 0.000000e+00 0.000000e+00
5.287770e-01 0.000000e+00 0.000000e+00
5.539568e-01 0.000000e+00 0.000000e+00
5.791367e-01 0.000000e+00 0.000000e+00
6.043165e-01 0.000000e+00 0.000000e+00
6.294964e-01 0.000000e+00 0.000000e+00
6.546763e-01 0.000000e+00 0.000000e+00
6.798561e-01 0.000000e+00 0.000000e+00
7.050360e-01 0.000000e+00 0.000000e+00
7.302158e-01 0.000000e+00 0.000000e+00
7.553957e-01 0.000000e+00 0.000000e+00
7.805755e-01 0.000000e+00 0.000000e+00
8.057554e-01 0.000000e+00 0.000000e+00
8.309353e-01 0.000000e+00 0.000000e+00
8.561151e-01 0.000000e+00 0.000000e+00
8.812950e-01 0.000000e+00 0.000000e+00
9.064748e-01 0.000000e+00 0.000000e+00
9.316547e-01 0.000000e+00 0.000000e+00
9.568345e-01 0.000000e+00 0.000000e+00
9.820144e-01 0.000000e+00 0.000000e+00
1.007194e+00 0.000000e+00 0.000000e+00
1.032374e+00 0.000000e+00 0.000000e+00
1.057554e+00 0.000000e+00 0.000000e+00
1.082734e+00 0.000000e+00 0.000000e+00
1.107914e+00 0.000000e+00 0.000000e+00
1.133094e+00 0.000000e+00 0.000000e+00
1.158273e+00 0.000000e+00 0.000000e+00
1.183453e+00 0.000000e+00 0.000000e+00
1.208633e+00 0.000000e+00 0.000000e+00
1.233813e+00 0.000000e+00 0.000000e+00
1.258993e+00 0.000000e+00 0.000000e+00
1.284173e+00 0.000000e+00 0.000000e+00
1.309353e+00 0.000000e+00 0.000000e+00
1.334532e+00 0.000000e+00 0.000000e+00
1.359712e+00 0.000000e+00 0.000000e+00
1.384892e+00 0.000000e+00 0.000000e+00
1.410072e+00 0.000000e+00 0.000000e+00
1.435252e+00 0.000000e+00 0.000000e+00
1.460432e+00 0.000000e+00 0.000000e+00
1.485612e+00 0.000000e+00 0.000000e+00
1.510791e+00 0.000000e+00 0.000000e+00
1.535971e+00 0.000000e+00 0.000000e+00
1.561151e+00 0.000000e+00 0.000000e+00
1.586331e+00 0.000000e+00 0.000000e+00
1.611511e+00 0.000000e+00 0.000000e+00
1.636691e+00 0.000000e+00 0.000000e+00
1.661871e+00 0.000000e+00 0.000000e+00
1.687050e+00 0.000000e+00 0.000000e+00
1.712230e+00 0.000000e+00 0.000000e+00
1.737410e+00 0.000000e+00 0.000000e+00
1.762590e+00 0.000000e+00 0.000000e+00
1.787770e+00 0.000000e+00 0.000000e+00
1.812950e+00 0.000000e+00 0.000000e+00
1.838129e+00 0.000000e+00 0.000000e+00
1.863309e+00 0.000000e+00 0.000000e+00
1.888489e+00 0.000000e+00 0.000000e+00
1.913669e+00 0.000000e+00 0.000000e+00
1.938849e+00 0.000000e+00 0.000000e+00
1.964029e+00 0.000000e+00 0.000000e+00
1.989209e+00 0.000000e+00 0.000000e+00
2.014388e+00 0.000000e+00 0.000000e+00
2.039568e+00 0.000000e+00 0.000000e+00
2.064748e+00 0.000000e+00 0.000000e+00
2.089928e+00 0.000000e+00 0.000000e+00
2.115108e+00 0.000000e+00 0.000000e+00
2.140288e+00 0.000000e+00 0.000000e+00
2.165468e+00 0.000000e+00 0.000000e+00
2.190647e+00 0.000000e+00 0.000000e+00
2.215827e+00 0.000000e+00 0.000000e+00
2.241007e+00 0.000000e+00 0.000000e+00
2.266187e+00 0.000000e+00 0.000000e+00
2.291367e+00 0.000000e+00 0.000000e+00
2.316547e+00 0.000000e+00 0.000000e+00
2.341727e+00 0.000000e+00 0.000000e+00
2.366906e+00 0.000000e+00 0.000000e+00
2.392086e+00 0.000000e+00 0.000000e+00
2.417266e+00 0.000000e+00 0.000000e+00
2.442446e+00 0.000000e+00 0.000000e+00
2.467626e+00 0.000000e+00 0.000000e+00
2.492806e+00 0.000000e+00 0.000000e+00
2.517986e+00 0.000000e+00 0.000000e+00
2.543165e+00 0.000000e+00 0.000000e+00
2.568345e+00 0.000000e+00 0.000000e+00
2.593525e+00 0.000000e+00 0.000000e+00
2.618705e+00 0.000000e+00 0.000000e+00
2.643885e+00 0.000000e+00 0.000000e+00
2.669065e+00 0.000000e+00 0.000000e+00
2.694245e+00 0.000000e+00 0.000000e+00
2.719424e+00 0.000000e+00 0.000000e+00
2.744604e+00 0.000000e+00 0.000000e+00
2.769784e+00 0.000000e+00 0.000000e+00
2.794964e+00 0.000000e+00 0.000000e+00
2.820144e+00 0.000000e+00 0.000000e+00
2.845324e+00 0.000000e+00 0.000000e+00
2.870504e+00 0.000000e+00 0.000000e+00
2.895683e+00 0.000000e+00 0.000000e+00
2.920863e+00 0.000000e+00 0.000000e+00
2.946043e+00 0.000000e+00 0.000000e+00
2.971223e+00 0.000000e+00 0.000000e+00
2.996403e+00 0.000000e+00 0.000000e+00
3.021583e+00 0.000000e+00 0.000000e+00
3.046763e+00 0.000000e+00 0.000000e+00
3.071942e+00 0.000000e+00 0.000000e+00
3.097122e+00 0.000000e+00 0.000000e+00
3.122302e+00 0.000000e+00 0.000000e+00
3.147482e+00 0.000000e+00 0.000000e+00
3.172662e+00 0.000000e+00 0.000000e+00
3.197842e+00 0.000000e+00 0.000000e+00
3.223022e+00 0.000000e+00 0.000000e+00
3.248201e+00 0.000000e+00 0.000000e+00
3.273381e+00 0.000000e+00 0.000000e+00
3.298561e+00 0.000000e+00 0.000000e+00
3.323741e+00 0.000000e+00 0.000000e+00
3.348921e+00 0.000000e+00 0.000000e+00
3.374101e+00 0.000000e+00 0.000000e+00
3.399281e+00 0.000000e+00 0.000000e+00
3.424460e+00 0.000000e+00 0.000000e+00
3.449640e+00 0.000000e+00 0.000000e+00
3.474820e+00 0.000000e+00 0.000000e+00
3.500000e+00 0.000000e+00 0.000000e+00
0.000000e+00 1.694915e-02 0.000000e+00
2.517986e-02 1.694915e-02 0.000000e+00
5.035971e-02 1.694915e-02 0.000000e+00
7.553957e-02 1.694915e-02 0.000000e+00
1.007194e-01 1.694915e-02 0.000000e+00
1.258993e-01 1.694915e-02 0.000000e+00
1.510791e-01 1.694915e-02 0.000000e+00
1.762590e-01 1.694915e-02 0.000000e+00
2.014388e-01 1.694915e-02 0.000000e+00
2.266187e-01 1.694915e-02 0.000000e+00
2.517986e-01 1.694915e-02 0.000000e+00
2.769784e-01 1.694915e-02 0.000000e+00
3.021583e-01 1.694915e-02 0.000000e+00
3.273381e-01 1.694915e-02 0.000000e+00
3.525180e-01 1.694915e-02 0.000000e+00
3.776978e-01 1.694915e-02 0.000000e+00
4.028777e-01 1.694915e-02 0.000000e+00
4.280576e-01 1.694915e-02 0.000000e+00
4.532374e-01 1.694915e-02 0.000000e+00
4.784173e-01 1.694915e-02 0.000000e+00
5.035971e-01 1.694915e-02 0.000000e+00
5.287770e-01 1.694915e-02 0.000000e+00
5.539568e-01 1.694915e-02 0.000000e+00
5.791367e-01 1.694915e-02 0.000000e+00
6.043165e-01 1.694915e-02 0.000000e+00
6.294964e-01 1.694915e-02 0.000000e+00
6.546763e-01 1.694915e-02 0.000000e+00
6.798561e-01 1.694915e-02 0.000000e+00
7.050360e-01 1.694915e-02 0.000000e+00
7.302158e-01 1.694915e-02 0.000000e+00
7.553957e-01 1.694915e-02 0.000000e+00
7.805755e-01 1.694915e-02 0.000000e+00
8.057554e-01 1.694915e-02 0.000000e+00
8.309353e-01 1.694915e-02 0.000000e+00
8.561151e-01 1.694915e-02 0.000000e+00
8.812950e-01 1.694915e-02 0.000000e+00
9.064748e-01 1.694915e-02 0.000000e+00
9.316547e-01 1.694915e-02 0.000000e+00
9.568345e-01 1.694915e-02 0.000000e+00
9.820144e-01 1.694915e-02 0.000000e+00
1.007194e+00 1.694915e-02 0.000000e+00
1.032374e+00 1.694915e-02 0.000000e+00
1.057554e+00 1.694915e-02 0.000000e+00
1.082734e+00 1.694915e-02 0.000000e+00
1.107914e+00 1.694915e-02 0.000000e+00
1.133094e+00 1.694915e-02 0.000000e+00
1.158273e+00 1.694915e-02 0.000000e+00
1.183453e+00 1.694915e-02 0.000000e+00
1.208633e+00 1.694915e-02 0.000000e+00
1.233813e+00 1.694915e-02 0.000000e+00
1.258993e+00 1.694915e-02 0.000000e+00
1.284173e+00 1.694915e-02 0.000000e+00
1.309353e+00 1.694915e-02 0.000000e+00
1.334532e+00 1.694915e-02 0.000000e+00
1.359712e+00 1.694915e-02 0.000000e+00
1.384892e+00 1.694915e-02 0.000000e+00
1.410072e+00 1.694915e-02 0.000000e+00
1.435252e+00 1.694915e-02 0.000000e+00
1.460432e+00 1.694915e-02 0.000000e+00
1.485612e+00 1.694915e-02 0.000000e+00
1.510791e+00 1.694915e-02 0.000000e+00
1.535971e+00 1.694915e-02 0.000000e+00
1.561151e+00 1.694915e-02 0.000000e+00
1.586331e+00 1.694915e-02 0.000000e+00
1.611511e+00 1.694915e-02 0.000000e+00
1.636691e+00 1.694915e-02 0.000000e+00
1.661871e+00 1.694915e-02 0.000000e+00
1.687050e+00 1.694915e-02 0.000000e+00
1.712230e+00 1.694915e-02 0.000000e+00
1.737410e+00 1.694915e-02 0.000000e+00
1.762590e+00 1.694915e-02 0.000000e+00
1.787770e+00 1.694915e-02 0.000000e+00
1.812950e+00 1.694915e-02 0.000000e+00
1.838129e+00 1.694915e-02 0.000000e+00
1.863309e+00 1.694915e-02 0.000000e+00
1.888489e+00 1.694915e-02 0.000000e+00
1.913669e+00 1.694915e-02 0.000000e+00
1.938849e+00 1.694915e-02 0.000000e+00
1.964029e+00 1.694915e-02 0.000000e+00
1.989209e+00 1.694915e-02 0.000000e+00
2.014388e+00 1.694915e-02 0.000000e+00
2.039568e+00 1.694915e-02 0.000000e+00
2.064748e+00 1.694915e-02 0.000000e+00
2.089928e+00 1.694915e-02 0.000000e+00
2.115108e+00 1.694915e-02 0.000000e+00
2.140288e+00 1.694915e-02 0.000000e+00
2.165468e+00 1.694915e-02 0.000000e+00
2.190647e+00 1.694915e-02 0.000000e+00
2.215827e+00 1.694915e-02 0.000000e+00
2.241007e+00 1.694915e-02 0.000000e+00
2.266187e+00 1.694915e-02 0.000000e+00
2.291367e+00 1.694915e-02 0.000000e+00
2.316547e+00 1.694915e-02 0.000000e+00
2.341727e+00 1.694915e-02 0.000000e+00
2.366906e+00 1.694915e-02 0.000000e+00
2.392086e+00 1.694915e-02 0.000000e+00
2.417266e+00 1.694915e-02 0.000000e+00
2.442446e+00 1.694915e-02 0.000000e+00
2.467626e+00 1.694915e-02 0.000000e+00
2.492806e+00 1.694915e-02 0.000000e+00
2.517986e+00 1.694915e-02 0.000000e+00
2.543165e+00 1.694915e-02 0.000000e+00
2.568345e+00 1.694915e-02 0.000000e+00
2.593525e+00 1.694915e-02 0.000000e+00
2.618705e+00 1.694915e-02 0.000000e+00
2.643885e+00 1.694915e-02 0.000000e+00
2.669065e+00 1.694915e-02 0.000000e+00
2.694245e+00 1.694915e-02 0.000000e+00
2.719424e+00 1.694915e-02 0.000000e+00
2.744604e+00 1.694915e-02 0.000000e+00
2.769784e+00 1.694915e-02 0.000000e+00
2.794964e+00 1.694915e-02 0.000000e+00
2.820144e+00 1.694915e-02 0.000000e+00
[...]
POINT_DATA 8400
SCALARS RES_Cont double
LOOKUP_TABLE default
0.000000e+00
0.000000e+00
0.000000e+00
0.000000e+00
0.000000e+00
0.000000e+00
0.000000e+00
0.000000e+00
0.000000e+00
0.000000e+00
0.000000e+00
0.000000e+00
0.000000e+00
0.000000e+00
0.000000e+00
0.000000e+00
0.000000e+00
0.000000e+00
0.000000e+00
0.000000e+00
0.000000e+00
0.000000e+00
0.000000e+00
0.000000e+00
0.000000e+00
0.000000e+00
0.000000e+00
0.000000e+00
0.000000e+00
0.000000e+00
0.000000e+00
0.000000e+00
0.000000e+00
0.000000e+00
0.000000e+00
0.000000e+00
0.000000e+00
0.000000e+00
0.000000e+00
0.000000e+00
0.000000e+00
0.000000e+00
0.000000e+00
0.000000e+00
0.000000e+00
0.000000e+00
0.000000e+00
0.000000e+00
0.000000e+00
0.000000e+00
0.000000e+00
0.000000e+00
0.000000e+00
0.000000e+00
0.000000e+00
0.000000e+00
0.000000e+00
0.000000e+00
0.000000e+00
0.000000e+00
0.000000e+00
0.000000e+00
0.000000e+00
0.000000e+00
0.000000e+00
0.000000e+00
0.000000e+00
0.000000e+00
0.000000e+00
0.000000e+00
0.000000e+00
0.000000e+00
0.000000e+00
0.000000e+00
0.000000e+00
0.000000e+00
0.000000e+00
0.000000e+00
0.000000e+00
0.000000e+00
0.000000e+00
0.000000e+00
0.000000e+00
0.000000e+00
0.000000e+00
0.000000e+00
0.000000e+00
0.000000e+00
0.000000e+00
0.000000e+00
0.000000e+00
0.000000e+00
0.000000e+00
0.000000e+00
0.000000e+00
0.000000e+00
0.000000e+00
0.000000e+00
0.000000e+00
0.000000e+00
0.000000e+00
0.000000e+00
0.000000e+00
0.000000e+00
0.000000e+00
0.000000e+00
0.000000e+00
0.000000e+00
0.000000e+00
0.000000e+00
0.000000e+00
0.000000e+00
0.000000e+00
0.000000e+00
0.000000e+00
0.000000e+00
0.000000e+00
0.000000e+00
0.000000e+00
0.000000e+00
0.000000e+00
0.000000e+00
0.000000e+00
0.000000e+00
0.000000e+00
0.000000e+00
0.000000e+00
0.000000e+00
0.000000e+00
0.000000e+00
0.000000e+00
0.000000e+00
0.000000e+00
0.000000e+00
0.000000e+00
0.000000e+00
0.000000e+00
0.000000e+00
0.000000e+00
0.000000e+00
0.000000e+00
-0.000000e+00
-0.000000e+00
-0.000000e+00
-0.000000e+00
-0.000000e+00
-0.000000e+00
3.951571e-19
-2.766100e-18
2.082467e-18
2.280046e-18
-4.179766e-18
-8.663792e-19
2.416391e-18
2.578590e-19
1.793992e-18
-1.484016e-18
-2.249020e-18
1.055251e-18
1.909380e-18
-1.270536e-18
4.132212e-18
8.375265e-19
1.456216e-18
-2.725732e-18
1.649092e-19
4.536192e-18
-5.233424e-18
-3.989587e-18
-1.808708e-18
-1.299336e-18
9.857897e-19
-2.795383e-20
6.608343e-18
3.649560e-18
4.020077e-18
2.634018e-19
-1.268789e-18
-3.223867e-18
-9.277904e-19
-6.458023e-18
1.433967e-18
8.037745e-18
9.045108e-18
3.998299e-17
1.162767e-16
3.355760e-16
3.498528e-16
-3.597084e-15
-3.320162e-14
-1.831633e-13
-7.806844e-13
-2.678234e-12
-7.099089e-12
-1.139188e-11
1.332396e-11
2.011755e-10
9.946770e-10
3.469968e-09
9.235273e-09
1.751580e-08
1.324522e-08
-6.423176e-08
-3.802124e-07
-1.266106e-06
-3.080338e-06
-5.058103e-06
-1.712509e-06
1.892607e-05
6.125160e-05
1.140732e-04
1.632642e-04
1.997980e-04
2.209860e-04
2.287306e-04
2.267483e-04
2.186600e-04
2.070743e-04
1.933932e-04
1.781758e-04
1.616641e-04
1.441967e-04
1.263866e-04
1.091025e-04
9.333568e-05
8.000418e-05
6.975860e-05
6.283259e-05
5.897133e-05
5.747516e-05
5.735668e-05
5.756108e-05
5.719086e-05
5.568244e-05
5.288807e-05
4.904309e-05
4.464197e-05
4.027201e-05
3.645181e-05
3.350939e-05
3.152566e-05
3.035453e-05
2.970750e-05
2.926686e-05
2.878450e-05
2.813485e-05
2.731442e-05
2.640065e-05
2.549391e-05
2.466540e-05
2.392647e-05
2.322413e-05
2.245816e-05
2.150935e-05
2.026741e-05
1.864982e-05
1.660883e-05
1.412889e-05
1.122036e-05
7.915119e-06
4.266861e-06
3.555036e-07
-3.708309e-06
-7.783404e-06
-1.170677e-05
-1.531195e-05
-1.845523e-05
-2.104518e-05
-2.306946e-05
-2.461206e-05
-2.585550e-05
-2.706447e-05
-2.855166e-05
-3.063084e-05
-3.356643e-05
-3.753066e-05
-4.257834e-05
-4.864459e-05
-5.556474e-05
0.000000e+00
0.000000e+00
-0.000000e+00
-0.000000e+00
-0.000000e+00
-0.000000e+00
-0.000000e+00
3.951571e-19
-5.927357e-19
1.778207e-18
7.903142e-19
-3.769777e-18
-1.094574e-18
5.684329e-18
1.580628e-18
-2.141795e-18
-1.256773e-18
-1.647168e-18
3.473138e-18
-2.332029e-18
-2.948863e-18
-1.861533e-18
-1.188830e-18
-6.450608e-19
-1.506236e-18
-9.251613e-19
-3.108179e-19
-4.093600e-18
-2.668875e-18
2.549530e-18
2.540559e-18
4.349729e-18
-3.344564e-18
-7.581495e-19
1.686510e-18
-2.364483e-18
1.020866e-18
-2.898011e-18
4.296240e-18
-1.171761e-18
5.598919e-19
9.645639e-19
-2.149845e-18
2.331092e-18
5.989342e-18
2.645720e-17
6.408677e-17
-1.140111e-16
-2.348232e-15
-1.607114e-14
-8.002957e-14
-3.195007e-13
-1.019651e-12
-2.344825e-12
-1.743677e-12
1.802352e-11
1.284848e-10
5.493243e-10
1.763981e-09
4.280341e-09
6.601227e-09
-2.086721e-09
-6.010598e-08
-2.661508e-07
-8.053770e-07
-1.799115e-06
-2.307687e-06
2.148021e-06
1.828912e-05
4.248413e-05
6.273549e-05
7.559792e-05
9.148748e-05
1.236293e-04
1.716980e-04
2.205308e-04
2.541651e-04
2.661096e-04
2.589402e-04
2.394333e-04
2.142014e-04
1.877105e-04
1.623199e-04
1.390717e-04
1.184505e-04
1.007978e-04
8.640882e-05
7.546292e-05
6.788803e-05
6.327201e-05
6.088822e-05
5.981133e-05
5.908873e-05
5.793375e-05
5.587466e-05
5.280366e-05
4.893006e-05
4.467480e-05
4.053474e-05
3.694024e-05
3.414423e-05
3.218091e-05
3.090271e-05
3.006628e-05
2.942406e-05
2.878980e-05
2.806729e-05
2.724622e-05
2.637508e-05
2.552226e-05
2.473773e-05
2.402639e-05
2.334035e-05
2.259001e-05
2.166715e-05
2.046983e-05
1.892021e-05
1.697145e-05
1.460536e-05
1.182586e-05
8.653984e-06
5.127607e-06
1.305603e-06
-2.726568e-06
-6.853994e-06
-1.093555e-05
-1.481487e-05
-1.833865e-05
-2.138029e-05
-2.386590e-05
-2.579825e-05
-2.727418e-05
-2.848993e-05
-2.973039e-05
-3.134003e-05
-3.367770e-05
-3.706113e-05
-4.171096e-05
-4.770536e-05
-5.495480e-05
0.000000e+00
0.000000e+00
-0.000000e+00
-0.000000e+00
-0.000000e+00
-0.000000e+00
-0.000000e+00
-7.903142e-19
3.860674e-18
3.465517e-18
1.669620e-19
-2.447008e-18
2.203981e-18
1.808823e-18
-3.433948e-18
-2.306852e-18
-4.598872e-18
-1.852367e-18
1.842022e-18
-1.870616e-18
-2.390579e-18
4.646292e-18
1.190351e-18
-4.597424e-19
2.468167e-18
3.695678e-18
1.820367e-18
-2.338054e-18
-1.294490e-18
5.543596e-18
2.344253e-18
2.074903e-18
2.080912e-18
-2.104878e-18
4.411266e-19
1.918477e-18
-1.871129e-18
-8.626249e-18
-1.056425e-17
-1.402134e-17
3.098410e-18
1.010330e-17
5.090444e-18
6.720850e-18
6.958469e-18
1.589157e-18
-1.710908e-16
-1.474840e-15
-8.632404e-15
-3.969353e-14
-1.481623e-13
-4.283485e-13
-7.446778e-13
1.040273e-12
1.649590e-11
8.969087e-11
3.466932e-10
1.030524e-09
2.226761e-09
2.251980e-09
-7.692727e-09
-5.626299e-08
-2.132284e-07
-5.956410e-07
-1.201735e-06
-9.953801e-07
3.900939e-06
1.775281e-05
3.580639e-05
4.808369e-05
5.013156e-05
4.561839e-05
4.294777e-05
5.299748e-05
8.803171e-05
1.522693e-04
2.298507e-04
2.925513e-04
3.213885e-04
3.155437e-04
2.859423e-04
2.459107e-04
2.053369e-04
1.693587e-04
1.396796e-04
1.162330e-04
9.833276e-05
8.518660e-05
7.598465e-05
6.988325e-05
6.599306e-05
6.339983e-05
6.126500e-05
5.895702e-05
5.612039e-05
5.267384e-05
4.877343e-05
4.473892e-05
4.093465e-05
3.764465e-05
3.500253e-05
3.299568e-05
3.151331e-05
3.039919e-05
2.949363e-05
2.866647e-05
2.784158e-05
2.700477e-05
2.618867e-05
2.543928e-05
2.477941e-05
2.418576e-05
2.358784e-05
2.288567e-05
2.197575e-05
2.077330e-05
1.922374e-05
1.730236e-05
1.500641e-05
1.234572e-05
9.336904e-06
6.002982e-06
2.377736e-06
-1.488087e-06
-5.521539e-06
-9.625271e-06
-1.367939e-05
-1.754792e-05
-2.109071e-05
-2.418165e-05
-2.673370e-05
-2.872891e-05
-3.024836e-05
-3.149363e-05
-3.278964e-05
-3.455993e-05
-3.727046e-05
-4.134607e-05
-4.707291e-05
-5.450801e-05
0.000000e+00
0.000000e+00
-0.000000e+00
-0.000000e+00
-0.000000e+00
-0.000000e+00
3.951571e-19
-1.778207e-18
6.994172e-19
-7.903142e-19
-3.282770e-18
-2.492456e-18
-4.099891e-19
-2.369990e-18
-2.262356e-18
3.484159e-18
3.250249e-18
1.704966e-19
5.714947e-19
1.571069e-18
4.102155e-18
6.475930e-19
-2.586798e-18
9.767817e-19
2.385772e-19
9.089114e-19
3.258121e-18
1.792341e-21
4.157476e-19
-3.189001e-18
-3.131553e-18
-9.025310e-20
3.561651e-18
3.251047e-19
9.893144e-19
-3.568621e-18
-6.341249e-18
-6.280443e-18
-5.972770e-18
-3.985444e-18
-1.396212e-17
2.281812e-18
-1.870809e-18
1.029059e-18
-4.230251e-18
-1.152955e-16
-7.935607e-16
-4.292469e-15
-1.879494e-14
-6.642615e-14
-1.721232e-13
-1.693668e-13
1.409823e-12
1.176408e-11
5.702644e-11
2.082307e-10
5.850362e-10
1.124075e-09
3.969958e-10
-8.179497e-09
-4.531620e-08
-1.602243e-07
-4.272103e-07
-7.833763e-07
-2.471516e-07
4.252775e-06
1.503576e-05
2.798968e-05
3.699383e-05
3.983869e-05
3.840070e-05
3.559628e-05
3.322064e-05
3.261007e-05
3.781148e-05
5.983200e-05
1.144071e-04
2.034330e-04
2.995265e-04
3.646358e-04
3.805195e-04
3.541011e-04
3.040404e-04
2.482059e-04
1.978517e-04
1.575166e-04
1.275281e-04
1.062811e-04
9.164885e-05
8.167493e-05
7.473700e-05
6.955992e-05
6.524457e-05
6.123118e-05
5.721777e-05
5.312204e-05
4.904991e-05
4.519812e-05
4.173128e-05
3.872448e-05
3.618247e-05
3.407388e-05
3.233944e-05
3.089137e-05
2.963308e-05
2.849661e-05
2.746729e-05
2.657393e-05
2.585098e-05
2.529884e-05
2.486565e-05
2.445650e-05
2.395987e-05
2.327529e-05
2.233031e-05
2.108344e-05
1.951671e-05
1.762464e-05
1.540558e-05
1.285839e-05
9.984412e-06
6.792292e-06
3.302872e-06
-4.478015e-07
-4.407647e-06
-8.508704e-06
-1.266674e-05
-1.677984e-05
-2.072799e-05
-2.437786e-05
-2.759833e-05
-3.028974e-05
-3.242557e-05
-3.409769e-05
-3.555079e-05
-3.718829e-05
-3.953479e-05
-4.314915e-05
-4.849636e-05
-5.580289e-05
0.000000e+00
0.000000e+00
-0.000000e+00
-0.000000e+00
-0.000000e+00
-0.000000e+00
-1.383050e-18
5.927357e-19
-5.152827e-18
-4.255831e-18
-1.732758e-18
-1.383050e-18
-6.381842e-19
-3.357883e-18
1.415572e-18
2.245619e-18
-2.424831e-18
5.129547e-18
-2.904785e-18
6.576121e-19
1.485018e-18
8.938437e-19
2.063970e-19
-4.175373e-19
2.505488e-18
1.701585e-18
-2.324097e-18
-5.968058e-18
8.910858e-19
-8.247460e-19
4.147365e-18
-1.887815e-18
-2.484088e-18
-1.248427e-18
3.711794e-18
2.201385e-18
-7.352898e-19
-1.906956e-18
1.051671e-17
2.088365e-17
4.355718e-18
-1.622925e-17
-1.609080e-17
-1.462915e-17
-5.790990e-17
-3.848349e-16
-1.978470e-15
-8.292812e-15
-2.752735e-14
-6.018768e-14
2.493523e-14
1.141231e-12
7.484571e-12
3.368626e-11
1.173371e-10
3.101670e-10
5.017763e-10
-4.020839e-10
-7.050678e-09
-3.369600e-08
-1.133812e-07
-2.890112e-07
-4.647371e-07
2.151222e-07
3.995575e-06
1.186166e-05
2.067696e-05
2.691531e-05
2.988970e-05
3.137191e-05
3.321182e-05
3.584456e-05
3.832177e-05
3.900709e-05
3.668087e-05
3.266253e-05
3.462747e-05
6.078189e-05
1.329603e-04
2.485131e-04
3.654998e-04
4.354368e-04
4.415223e-04
3.985701e-04
3.322346e-04
2.640312e-04
2.060287e-04
1.618536e-04
1.303525e-04
1.085770e-04
9.340528e-05
8.236918e-05
7.383476e-05
6.679542e-05
6.069919e-05
5.535059e-05
5.073101e-05
4.680128e-05
4.344704e-05
4.054573e-05
3.801222e-05
3.577278e-05
3.373767e-05
3.183036e-05
3.004270e-05
2.844887e-05
2.715554e-05
2.622652e-05
2.563623e-05
2.527666e-05
2.500250e-05
2.468122e-05
2.422175e-05
2.357522e-05
2.271690e-05
2.162437e-05
2.026349e-05
1.858659e-05
1.654111e-05
1.408335e-05
1.119196e-05
7.876453e-06
4.178889e-06
1.686404e-07
-4.067560e-06
-8.436563e-06
-1.284659e-05
-1.720898e-05
-2.143419e-05
-2.542636e-05
-2.908401e-05
-3.231442e-05
-3.506517e-05
-3.736873e-05
-3.938727e-05
-4.143901e-05
-4.398588e-05
-4.756888e-05
-5.269005e-05
-5.965885e-05
0.000000e+00
0.000000e+00
-0.000000e+00
-0.000000e+00
-0.000000e+00
1.975786e-19
1.975786e-18
-3.572198e-18
-2.872781e-18
1.930337e-18
-3.161257e-18
-5.046145e-18
-5.030361e-18
1.337601e-18
-6.132832e-19
9.851687e-19
1.359636e-18
-4.987653e-18
-1.634434e-20
-1.780722e-18
-2.020985e-18
-1.954558e-18
-3.967699e-18
-7.142311e-19
-5.344444e-18
-2.802369e-18
-7.511838e-18
-4.867094e-18
1.701127e-18
3.724160e-19
-1.886941e-18
1.006637e-18
-1.168668e-17
-1.250921e-17
-8.674404e-18
-3.022497e-18
-1.633477e-18
1.757976e-17
1.168571e-17
-4.097259e-18
4.428580e-18
-1.143582e-17
1.754987e-18
-1.978299e-17
-1.700040e-16
-8.543818e-16
-3.403632e-15
-1.038835e-14
-1.603270e-14
6.702702e-14
7.694282e-13
4.409496e-12
1.875649e-11
6.236828e-11
1.524930e-10
1.792979e-10
-6.434085e-10
-5.465464e-09
-2.371677e-08
-7.651396e-08
-1.850189e-07
-2.412926e-07
4.537464e-07
3.419468e-06
8.890611e-06
1.473212e-05
1.902929e-05
2.171350e-05
2.414301e-05
2.765613e-05
3.269437e-05
3.870104e-05
4.435936e-05
4.792302e-05
4.756477e-05
4.181685e-05
3.052683e-05
1.726343e-05
1.392493e-05
4.549108e-05
1.389560e-04
2.866962e-04
4.324043e-04
5.161572e-04
5.205196e-04
4.666651e-04
3.865005e-04
3.050957e-04
2.360155e-04
1.829741e-04
1.442714e-04
1.165732e-04
9.661915e-05
8.186205e-05
7.070435e-05
6.224818e-05
5.584751e-05
5.092636e-05
4.704017e-05
4.388155e-05
4.117485e-05
3.863512e-05
3.606555e-05
3.346846e-05
3.102932e-05
2.897837e-05
2.744565e-05
2.640765e-05
2.573339e-05
2.526960e-05
2.490219e-05
2.456888e-05
2.423580e-05
2.386511e-05
2.339463e-05
2.273557e-05
2.178367e-05
2.043520e-05
1.860162e-05
1.622051e-05
1.326328e-05
9.740259e-06
5.702869e-06
1.241218e-06
-3.524041e-06
-8.454987e-06
-1.341183e-05
-1.826596e-05
-2.290698e-05
-2.724383e-05
-3.120414e-05
-3.473937e-05
-3.784111e-05
-4.056862e-05
-4.307920e-05
-4.564681e-05
-4.865244e-05
-5.253384e-05
-5.769253e-05
-6.436981e-05
0.000000e+00
0.000000e+00
-0.000000e+00
-0.000000e+00
-0.000000e+00
-5.927357e-19
1.094574e-18
-3.556414e-18
2.051851e-18
3.723376e-18
7.439131e-19
2.856997e-18
8.812112e-19
1.727996e-18
7.905650e-20
2.070894e-18
-5.488397e-18
-1.327808e-18
-2.532925e-18
-1.768725e-18
-4.688545e-18
-4.249663e-18
-4.145058e-18
1.647755e-18
3.432404e-18
8.002443e-18
4.122346e-18
8.236223e-18
1.464946e-18
7.309645e-18
1.852245e-18
1.529585e-18
-5.766819e-21
-5.739852e-18
-4.018807e-18
-4.660470e-18
5.045068e-18
5.847132e-18
7.722983e-18
-4.958925e-18
-2.717254e-18
5.928661e-19
1.102483e-19
-6.750425e-17
-3.389071e-16
-1.295669e-15
-3.453868e-15
-1.291228e-15
5.740563e-14
4.629034e-13
2.432103e-12
9.876025e-12
3.124707e-11
6.852637e-11
3.232491e-11
-6.114766e-10
-3.914388e-09
-1.588731e-08
-4.933020e-08
-1.116269e-07
-9.879394e-08
5.252199e-07
2.708992e-06
6.359326e-06
1.016921e-05
1.318837e-05
1.559183e-05
1.831198e-05
2.218835e-05
2.752397e-05
3.406999e-05
4.115550e-05
4.782227e-05
5.291990e-05
5.514842e-05
5.307872e-05
4.526260e-05
3.062152e-05
9.660405e-06
-1.250160e-05
-2.069085e-05
1.585654e-05
1.301095e-04
3.137981e-04
4.995761e-04
6.127231e-04
6.283271e-04
5.700787e-04
4.761439e-04
3.767050e-04
2.891131e-04
2.196526e-04
1.676340e-04
1.298722e-04
1.030987e-04
8.440997e-05
7.137130e-05
6.222984e-05
5.580557e-05
5.112657e-05
4.728985e-05
4.365374e-05
4.002188e-05
3.655438e-05
3.349508e-05
3.096359e-05
2.893366e-05
2.732969e-05
2.610994e-05
2.527076e-05
2.479583e-05
2.460934e-05
2.457103e-05
2.451043e-05
2.427333e-05
2.375314e-05
2.289471e-05
2.167528e-05
2.007666e-05
1.806382e-05
1.557897e-05
1.255257e-05
8.925653e-06
4.674883e-06
-1.684351e-07
-5.510995e-06
-1.120313e-05
-1.705446e-05
-2.285413e-05
-2.839126e-05
-3.347531e-05
-3.796003e-05
-4.177452e-05
-4.495899e-05
-4.769383e-05
-5.030521e-05
-5.323162e-05
-5.694571e-05
-6.184074e-05
-6.810522e-05
0.000000e+00
0.000000e+00
-0.000000e+00
-0.000000e+00
-0.000000e+00
-2.173364e-18
3.951571e-18
2.370943e-18
-1.975786e-19
-4.255831e-18
-2.477624e-18
2.188196e-18
3.612884e-18
7.545253e-19
-3.527435e-18
2.645530e-18
-8.139869e-19
-1.216548e-18
1.731729e-18
-1.122078e-18
-3.029095e-18
-1.894020e-18
2.821182e-18
3.791005e-18
-2.612745e-18
-8.792442e-19
2.318493e-18
-2.006169e-19
7.270242e-18
3.781206e-18
1.182480e-17
5.239462e-18
3.025274e-18
1.222758e-17
2.435948e-18
-1.164492e-17
2.307345e-19
-2.824309e-18
1.519146e-18
4.871047e-18
1.170819e-17
6.367192e-18
-1.574664e-17
-1.255103e-16
-4.578691e-16
-9.318544e-16
2.184736e-15
3.763405e-14
2.554416e-13
1.262123e-12
4.916087e-12
1.467779e-11
2.718227e-11
-2.227400e-11
-4.784363e-10
-2.625078e-09
-1.014767e-08
-3.033807e-08
-6.271844e-08
-1.726773e-08
4.914455e-07
2.007428e-06
4.354873e-06
6.812139e-06
8.969947e-06
1.107811e-05
1.377161e-05
1.758282e-05
2.269463e-05
2.892216e-05
3.580721e-05
4.275721e-05
4.915899e-05
5.440407e-05
5.781549e-05
5.852608e-05
5.539215e-05
4.701535e-05
3.196036e-05
9.274529e-06
-2.010380e-05
-5.007123e-05
-6.378098e-05
-2.712802e-05
9.970681e-05
3.160422e-04
5.519608e-04
7.152602e-04
7.621955e-04
7.110466e-04
6.061428e-04
4.858321e-04
3.738788e-04
2.816917e-04
2.115555e-04
1.605878e-04
1.246067e-04
9.988598e-05
8.312742e-05
7.137792e-05
6.244552e-05
5.516114e-05
4.908063e-05
4.397409e-05
3.958322e-05
3.570642e-05
3.234079e-05
2.965770e-05
2.782492e-05
2.683323e-05
2.645226e-05
2.632190e-05
2.609905e-05
2.557056e-05
2.468766e-05
2.352847e-05
2.222484e-05
2.089096e-05
1.957585e-05
1.824439e-05
1.678081e-05
1.500648e-05
1.270712e-05
9.666635e-06
5.705245e-06
7.165703e-07
-5.303011e-06
-1.223797e-05
-1.985145e-05
-2.779634e-05
-3.564069e-05
-4.291432e-05
-4.918335e-05
-5.414965e-05
-5.775323e-05
-6.023990e-05
-6.215552e-05
-6.424532e-05
-6.726926e-05
-7.177881e-05
0.000000e+00
0.000000e+00
-0.000000e+00
3.951571e-19
1.975786e-19
9.089700e-20
2.173364e-18
-3.541582e-18
-1.565796e-18
-2.523073e-18
-7.903142e-19
-1.826513e-18
3.724872e-18
3.879993e-18
-1.532055e-18
-2.741734e-18
-3.737038e-18
2.736590e-19
-5.228320e-19
4.711190e-18
4.915219e-18
4.684933e-18
2.252990e-18
1.982909e-18
3.529899e-19
4.266485e-19
9.609435e-19
-2.428271e-18
-2.702012e-18
-1.756152e-18
-5.890480e-19
-4.489822e-18
-4.433191e-18
1.507420e-17
1.151110e-17
-2.056325e-18
-5.802090e-18
-5.202362e-18
-1.808751e-18
4.362239e-18
7.688909e-18
-4.983465e-18
-5.710959e-17
-1.479712e-16
-1.454600e-16
2.128882e-15
2.139233e-14
1.310675e-13
6.178746e-13
2.309413e-12
6.401771e-12
8.673856e-12
-3.393577e-11
-3.336442e-10
-1.661871e-09
-6.185721e-09
-1.774988e-08
-3.211518e-08
2.235343e-08
4.050560e-07
1.401857e-06
2.864124e-06
4.436102e-06
5.987687e-06
7.765234e-06
1.021056e-05
1.369129e-05
1.835591e-05
2.409599e-05
3.057583e-05
3.731622e-05
4.380371e-05
4.957966e-05
5.427340e-05
5.756880e-05
5.911301e-05
5.839132e-05
5.461167e-05
4.665912e-05
3.316275e-05
1.275174e-05
-1.545232e-05
-5.051386e-05
-8.658465e-05
-1.078564e-04
-8.129709e-05
3.839626e-05
2.678577e-04
5.518206e-04
7.871894e-04
8.993066e-04
8.839135e-04
7.846663e-04
6.506437e-04
5.151871e-04
3.961902e-04
3.010964e-04
2.298661e-04
1.780435e-04
1.403635e-04
1.128310e-04
9.269046e-05
7.770341e-05
6.598293e-05
5.632055e-05
4.833340e-05
4.214028e-05
3.783654e-05
3.517047e-05
3.357305e-05
3.240707e-05
3.120950e-05
2.978617e-05
2.815399e-05
2.641215e-05
2.463362e-05
2.282634e-05
2.096004e-05
1.901886e-05
1.703454e-05
1.507410e-05
1.318623e-05
1.133370e-05
9.346217e-06
6.917732e-06
3.652159e-06
-8.562587e-07
-6.929522e-06
-1.471712e-05
-2.412179e-05
-3.474856e-05
-4.589557e-05
-5.661615e-05
-6.587415e-05
-7.278173e-05
-7.686265e-05
-7.825178e-05
-7.774308e-05
-7.663778e-05
-7.641318e-05
0.000000e+00
0.000000e+00
-0.000000e+00
-1.185471e-18
-5.927357e-19
1.383050e-18
-2.884755e-19
1.185471e-18
-1.109406e-18
-2.599138e-18
-1.688672e-19
3.517224e-18
3.181938e-18
-2.379925e-18
-3.106442e-19
-4.978197e-19
4.645648e-18
-1.833643e-18
-5.200868e-18
-1.486190e-18
9.352707e-19
4.187716e-18
2.114603e-18
1.837030e-18
3.440897e-18
9.188792e-19
-7.677327e-18
-4.857284e-18
1.636791e-18
3.021271e-18
-3.975791e-18
6.923093e-19
-1.428957e-17
-7.435701e-19
3.943288e-18
1.238274e-17
8.336906e-18
-4.668301e-18
-7.507494e-18
-4.123728e-18
5.943783e-18
-1.069029e-17
-3.872472e-17
5.284513e-17
1.366895e-15
1.099229e-14
6.302433e-14
2.856374e-13
1.020373e-12
2.547034e-12
1.422471e-12
-2.912474e-11
-2.140194e-10
-9.982173e-10
-3.598411e-09
-9.835466e-09
-1.433142e-08
3.590752e-08
3.039427e-07
9.276658e-07
1.814202e-06
2.813058e-06
3.922903e-06
5.355483e-06
7.427507e-06
1.041703e-05
1.447486e-05
1.957981e-05
2.553086e-05
3.197849e-05
3.848271e-05
4.457711e-05
4.982721e-05
5.388002e-05
5.649914e-05
5.756912e-05
5.704659e-05
5.484641e-05
5.068063e-05
4.390727e-05
3.346404e-05
1.792384e-05
-4.254293e-06
-3.430570e-05
-7.209105e-05
-1.134030e-04
-1.458663e-04
-1.423296e-04
-5.782293e-05
1.452602e-04
4.482401e-04
7.626127e-04
9.846118e-04
1.063031e-03
1.015354e-03
8.937831e-04