# vtk DataFile Version 3.0
Resultado Projeto 3
ASCII
DATASET STRUCTURED_GRID
DIMENSIONS 140 60 1 
POINTS 8400 double
0.000000e+00 0.000000e+00 0.000000e+00
2.517986e-02 0.000000e+00 0.000000e+00
5.035971e-02 0.000000e+00 0.000000e+00
7.553957e-02 0.000000e+00 0.000000e+00
1.007194e-01 0.000000e+00 0.000000e+00
1.258993e-01 0.000000e+00 0.000000e+00
1.510791e-01 0.000000e+00 0.000000e+00
1.762590e-01 0.000000e+00 0.000000e+00
2.014388e-01 0.000000e+00 0.000000e+00
2.266187e-01 0.000000e+00 0.000000e+00
2.517986e-01 0.000000e+00 0.000000e+00
2.769784e-01 0.000000e+00 0.000000e+00
3.021583e-01 0.000000e+00 0.000000e+00
3.273381e-01 0.000000e+00 0.000000e+00
3.525180e-01 0.000000e+00 0.000000e+00
3.776978e-01 0.000000e+00 0.000000e+00
4.028777e-01 0.000000e+00 0.000000e+00
4.280576e-01 0.000000e+00 0.000000e+00
4.532374e-01 0.000000e+00 0.000000e+00
4.784173e-01 0.000000e+00 0.000000e+00
5.035971e-01 0.000000e+00 0.000000e+00
5.287770e-01 0.000000e+00 0.000000e+00
5.539568e-01 0.000000e+00 0.000000e+00
5.791367e-01 0.000000e+00 0.000000e+00
6.043165e-01 0.000000e+00 0.000000e+00
6.294964e-01 0.000000e+00 0.000000e+00
6.546763e-01 0.000000e+00 0.000000e+00
6.798561e-01 0.000000e+00 0.000000e+00
7.050360e-01 0.000000e+00 0.000000e+00
7.302158e-01 0.000000e+00 0.000000e+00
7.553957e-01 0.000000e+00 0.000000e+00
7.805755e-01 0.000000e+00 0.000000e+00
8.057554e-01 0.000000e+00 0.000000e+00
8.309353e-01 0.000000e+00 0.000000e+00
8.561151e-01 0.000000e+00 0.000000e+00
8.812950e-01 0.000000e+00 0.000000e+00
9.064748e-01 0.000000e+00 0.000000e+00
9.316547e-01 0.000000e+00 0.000000e+00
9.568345e-01 0.000000e+00 0.000000e+00
9.820144e-01 0.000000e+00 0.000000e+00
1.007194e+00 0.000000e+00 0.000000e+00
1.032374e+00 0.000000e+00 0.000000e+00
1.057554e+00 0.000000e+00 0.000000e+00
1.082734e+00 0.000000e+00 0.000000e+00
1.107914e+00 0.000000e+00 0.000000e+00
1.133094e+00 0.000000e+00 0.000000e+00
1.158273e+00 0.000000e+00 0.000000e+00
1.183453e+00 0.000000e+00 0.000000e+00
1.208633e+00 0.000000e+00 0.000000e+00
1.233813e+00 0.000000e+00 0.000000e+00
1.258993e+00 0.000000e+00 0.000000e+00
1.284173e+00 0.000000e+00 0.000000e+00
1.309353e+00 0.000000e+00 0.000000e+00
1.334532e+00 0.000000e+00 0.000000e+00
1.359712e+00 0.000000e+00 0.000000e+00
1.384892e+00 0.000000e+00 0.000000e+00
1.410072e+00 0.000000e+00 0.000000e+00
1.435252e+00 0.000000e+00 0.000000e+00
1.460432e+00 0.000000e+00 0.000000e+00
1.485612e+00 0.000000e+00 0.000000e+00
1.510791e+00 0.000000e+00 0.000000e+00
1.535971e+00 0.000000e+00 0.000000e+00
1.561151e+00 0.000000e+00 0.000000e+00
1.586331e+00 0.000000e+00 0.000000e+00
1.611511e+00 0.000000e+00 0.000000e+00
1.636691e+00 0.000000e+00 0.000000e+00
1.661871e+00 0.000000e+00 0.000000e+00
1.687050e+00 0.000000e+00 0.000000e+00
1.712230e+00 0.000000e+00 0.000000e+00
1.737410e+00 0.000000e+00 0.000000e+00
1.762590e+00 0.000000e+00 0.000000e+00
1.787770e+00 0.000000e+00 0.000000e+00
1.812950e+00 0.000000e+00 0.000000e+00
1.838129e+00 0.000000e+00 0.000000e+00
1.863309e+00 0.000000e+00 0.000000e+00
1.888489e+00 0.000000e+00 0.000000e+00
1.913669e+00 0.000000e+00 0.000000e+00
1.938849e+00 0.000000e+00 0.000000e+00
1.964029e+00 0.000000e+00 0.000000e+00
1.989209e+00 0.000000e+00 0.000000e+00
2.014388e+00 0.000000e+00 0.000000e+00
2.039568e+00 0.000000e+00 0.000000e+00
2.064748e+00 0.000000e+00 0.000000e+00
2.089928e+00 0.000000e+00 0.000000e+00
2.115108e+00 0.000000e+00 0.000000e+00
2.140288e+00 0.000000e+00 0.000000e+00
2.165468e+00 0.000000e+00 0.000000e+00
2.190647e+00 0.000000e+00 0.000000e+00
2.215827e+00 0.000000e+00 0.000000e+00
2.241007e+00 0.000000e+00 0.000000e+00
2.266187e+00 0.000000e+00 0.000000e+00
2.291367e+00 0.000000e+00 0.000000e+00
2.316547e+00 0.000000e+00 0.000000e+00
2.341727e+00 0.000000e+00 0.000000e+00
2.366906e+00 0.000000e+00 0.000000e+00
2.392086e+00 0.000000e+00 0.000000e+00
2.417266e+00 0.000000e+00 0.000000e+00
2.442446e+00 0.000000e+00 0.000000e+00
2.467626e+00 0.000000e+00 0.000000e+00
2.492806e+00 0.000000e+00 0.000000e+00
2.517986e+00 0.000000e+00 0.000000e+00
2.543165e+00 0.000000e+00 0.000000e+00
2.568345e+00 0.000000e+00 0.000000e+00
2.593525e+00 0.000000e+00 0.000000e+00
2.618705e+00 0.000000e+00 0.000000e+00
2.643885e+00 0.000000e+00 0.000000e+00
2.669065e+00 0.000000e+00 0.000000e+00
2.694245e+00 0.000000e+00 0.000000e+00
2.719424e+00 0.000000e+00 0.000000e+00
2.744604e+00 0.000000e+00 0.000000e+00
2.769784e+00 0.000000e+00 0.000000e+00
2.794964e+00 0.000000e+00 0.000000e+00
2.820144e+00 0.000000e+00 0.000000e+00
2.845324e+00 0.000000e+00 0.000000e+00
2.870504e+00 0.000000e+00 0.000000e+00
2.895683e+00 0.000000e+00 0.000000e+00
2.920863e+00 0.000000e+00 0.000000e+00
2.946043e+00 0.000000e+00 0.000000e+00
2.971223e+00 0.000000e+00 0.000000e+00
2.996403e+00 0.000000e+00 0.000000e+00
3.021583e+00 0.000000e+00 0.000000e+00
3.046763e+00 0.000000e+00 0.000000e+00
3.071942e+00 0.000000e+00 0.000000e+00
3.097122e+00 0.000000e+00 0.000000e+00
3.122302e+00 0.000000e+00 0.000000e+00
3.147482e+00 0.000000e+00 0.000000e+00
3.172662e+00 0.000000e+00 0.000000e+00
3.197842e+00 0.000000e+00 0.000000e+00
3.223022e+00 0.000000e+00 0.000000e+00
3.248201e+00 0.000000e+00 0.000000e+00
3.273381e+00 0.000000e+00 0.000000e+00
3.298561e+00 0.000000e+00 0.000000e+00
3.323741e+00 0.000000e+00 0.000000e+00
3.348921e+00 0.000000e+00 0.000000e+00
3.374101e+00 0.000000e+00 0.000000e+00
3.399281e+00 0.000000e+00 0.000000e+00
3.424460e+00 0.000000e+00 0.000000e+00
3.449640e+00 0.000000e+00 0.000000e+00
3.474820e+00 0.000000e+00 0.000000e+00
3.500000e+00 0.000000e+00 0.000000e+00
0.000000e+00 1.694915e-02 0.000000e+00
2.517986e-02 1.694915e-02 0.000000e+00
5.035971e-02 1.694915e-02 0.000000e+00
7.553957e-02 1.694915e-02 0.000000e+00
1.007194e-01 1.694915e-02 0.000000e+00
1.258993e-01 1.694915e-02 0.000000e+00
1.510791e-01 1.694915e-02 0.000000e+00
1.762590e-01 1.694915e-02 0.000000e+00
2.014388e-01 1.694915e-02 0.000000e+00
2.266187e-01 1.694915e-02 0.000000e+00
2.517986e-01 1.694915e-02 0.000000e+00
2.769784e-01 1.694915e-02 0.000000e+00
3.021583e-01 1.694915e-02 0.000000e+00
3.273381e-01 1.694915e-02 0.000000e+00
3.525180e-01 1.694915e-02 0.000000e+00
3.776978e-01 1.694915e-02 0.000000e+00
4.028777e-01 1.694915e-02 0.000000e+00
4.280576e-01 1.694915e-02 0.000000e+00
4.532374e-01 1.694915e-02 0.000000e+00
4.784173e-01 1.694915e-02 0.000000e+00
5.035971e-01 1.694915e-02 0.000000e+00
5.287770e-01 1.694915e-02 0.000000e+00
5.539568e-01 1.694915e-02 0.000000e+00
5.791367e-01 1.694915e-02 0.000000e+00
6.043165e-01 1.694915e-02 0.000000e+00
6.294964e-01 1.694915e-02 0.000000e+00
6.546763e-01 1.694915e-02 0.000000e+00
6.798561e-01 1.694915e-02 0.000000e+00
7.050360e-01 1.694915e-02 0.000000e+00
7.302158e-01 1.694915e-02 0.000000e+00
7.553957e-01 1.694915e-02 0.000000e+00
7.805755e-01 1.694915e-02 0.000000e+00
8.057554e-01 1.694915e-02 0.000000e+00
8.309353e-01 1.694915e-02 0.000000e+00
8.561151e-01 1.694915e-02 0.000000e+00
8.812950e-01 1.694915e-02 0.000000e+00
9.064748e-01 1.694915e-02 0.000000e+00
9.316547e-01 1.694915e-02 0.000000e+00
9.568345e-01 1.694915e-02 0.000000e+00
9.820144e-01 1.694915e-02 0.000000e+00
1.007194e+00 1.694915e-02 0.000000e+00
1.032374e+00 1.694915e-02 0.000000e+00
1.057554e+00 1.694915e-02 0.000000e+00
1.082734e+00 1.694915e-02 0.000000e+00
1.107914e+00 1.694915e-02 0.000000e+00
1.133094e+00 1.694915e-02 0.000000e+00
1.158273e+00 1.694915e-02 0.000000e+00
1.183453e+00 1.694915e-02 0.000000e+00
1.208633e+00 1.694915e-02 0.000000e+00
1.233813e+00 1.694915e-02 0.000000e+00
1.258993e+00 1.694915e-02 0.000000e+00
1.284173e+00 1.694915e-02 0.000000e+00
1.309353e+00 1.694915e-02 0.000000e+00
1.334532e+00 1.694915e-02 0.000000e+00
1.359712e+00 1.694915e-02 0.000000e+00
1.384892e+00 1.694915e-02 0.000000e+00
1.410072e+00 1.694915e-02 0.000000e+00
1.435252e+00 1.694915e-02 0.000000e+00
1.460432e+00 1.694915e-02 0.000000e+00
1.485612e+00 1.694915e-02 0.000000e+00
1.510791e+00 1.694915e-02 0.000000e+00
1.535971e+00 1.694915e-02 0.000000e+00
1.561151e+00 1.694915e-02 0.000000e+00
1.586331e+00 1.694915e-02 0.000000e+00
1.611511e+00 1.694915e-02 0.000000e+00
1.636691e+00 1.694915e-02 0.000000e+00
1.661871e+00 1.694915e-02 0.000000e+00
1.687050e+00 1.694915e-02 0.000000e+00
1.712230e+00 1.694915e-02 0.000000e+00
1.737410e+00 1.694915e-02 0.000000e+00
1.762590e+00 1.694915e-02 0.000000e+00
1.787770e+00 1.694915e-02 0.000000e+00
1.812950e+00 1.694915e-02 0.000000e+00
1.838129e+00 1.694915e-02 0.000000e+00
1.863309e+00 1.694915e-02 0.000000e+00
1.888489e+00 1.694915e-02 0.000000e+00
1.913669e+00 1.694915e-02 0.000000e+00
1.938849e+00 1.694915e-02 0.000000e+00
1.964029e+00 1.694915e-02 0.000000e+00
1.989209e+00 1.694915e-02 0.000000e+00
2.014388e+00 1.694915e-02 0.000000e+00
2.039568e+00 1.694915e-02 0.000000e+00
2.064748e+00 1.694915e-02 0.000000e+00
2.089928e+00 1.694915e-02 0.000000e+00
2.115108e+00 1.694915e-02 0.000000e+00
2.140288e+00 1.694915e-02 0.000000e+00
2.165468e+00 1.694915e-02 0.000000e+00
2.190647e+00 1.694915e-02 0.000000e+00
2.215827e+00 1.694915e-02 0.000000e+00
2.241007e+00 1.694915e-02 0.000000e+00
2.266187e+00 1.694915e-02 0.000000e+00
2.291367e+00 1.694915e-02 0.000000e+00
2.316547e+00 1.694915e-02 0.000000e+00
2.341727e+00 1.694915e-02 0.000000e+00
2.366906e+00 1.694915e-02 0.000000e+00
2.392086e+00 1.694915e-02 0.000000e+00
2.417266e+00 1.694915e-02 0.000000e+00
2.442446e+00 1.694915e-02 0.000000e+00
2.467626e+00 1.694915e-02 0.000000e+00
2.492806e+00 1.694915e-02 0.000000e+00
2.517986e+00 1.694915e-02 0.000000e+00
2.543165e+00 1.694915e-02 0.000000e+00
2.568345e+00 1.694915e-02 0.000000e+00
2.593525e+00 1.694915e-02 0.000000e+00
2.618705e+00 1.694915e-02 0.000000e+00
2.643885e+00 1.694915e-02 0.000000e+00
2.669065e+00 1.694915e-02 0.000000e+00
2.694245e+00 1.694915e-02 0.000000e+00
2.719424e+00 1.694915e-02 0.000000e+00
2.744604e+00 1.694915e-02 0.000000e+00
2.769784e+00 1.694915e-02 0.000000e+00
2.794964e+00 1.694915e-02 0.000000e+00
2.820144e+00 1.694915e-02 0.000000e+00
[...]
POINT_DATA 8400
SCALARS RES_Cont double
LOOKUP_TABLE default
0.000000e+00
0.000000e+00
0.000000e+00
0.000000e+00
0.000000e+00
0.000000e+00
0.000000e+00
0.000000e+00
0.000000e+00
0.000000e+00
0.000000e+00
0.000000e+00
0.000000e+00
0.000000e+00
0.000000e+00
0.000000e+00
0.000000e+00
0.000000e+00
0.000000e+00
0.000000e+00
0.000000e+00
0.000000e+00
0.000000e+00
0.000000e+00
0.000000e+00
0.000000e+00
0.000000e+00
0.000000e+00
0.000000e+00
0.000000e+00
0.000000e+00
0.000000e+00
0.000000e+00
0.000000e+00
0.000000e+00
0.000000e+00
0.000000e+00
0.000000e+00
0.000000e+00
0.000000e+00
0.000000e+00
0.000000e+00
0.000000e+00
0.000000e+00
0.000000e+00
0.000000e+00
0.000000e+00
0.000000e+00
0.000000e+00
0.000000e+00
0.000000e+00
0.000000e+00
0.000000e+00
0.000000e+00
0.000000e+00
0.000000e+00
0.000000e+00
0.000000e+00
0.000000e+00
0.000000e+00
0.000000e+00
0.000000e+00
0.000000e+00
0.000000e+00
0.000000e+00
0.000000e+00
0.000000e+00
0.000000e+00
0.000000e+00
0.000000e+00
0.000000e+00
0.000000e+00
0.000000e+00
0.000000e+00
0.000000e+00
0.000000e+00
0.000000e+00
0.000000e+00
0.000000e+00
0.000000e+00
0.000000e+00
0.000000e+00
0.000000e+00
0.000000e+00
0.000000e+00
0.000000e+00
0.000000e+00
0.000000e+00
0.000000e+00
0.000000e+00
0.000000e+00
0.000000e+00
0.000000e+00
0.000000e+00
0.000000e+00
0.000000e+00
0.000000e+00
0.000000e+00
0.000000e+00
0.000000e+00
0.000000e+00
0.000000e+00
0.000000e+00
0.000000e+00
0.000000e+00
0.000000e+00
0.000000e+00
0.000000e+00
0.000000e+00
0.000000e+00
0.000000e+00
0.000000e+00
0.000000e+00
0.000000e+00
0.000000e+00
0.000000e+00
0.000000e+00
0.000000e+00
0.000000e+00
0.000000e+00
0.000000e+00
0.000000e+00
0.000000e+00
0.000000e+00
0.000000e+00
0.000000e+00
0.000000e+00
0.000000e+00
0.000000e+00
0.000000e+00
0.000000e+00
0.000000e+00
0.000000e+00
0.000000e+00
0.000000e+00
0.000000e+00
0.000000e+00
0.000000e+00
0.000000e+00
0.000000e+00
0.000000e+00
-0.000000e+00
-0.000000e+00
-0.000000e+00
-0.000000e+00
-0.000000e+00
-0.000000e+00
3.951571e-19
-2.766100e-18
2.082467e-18
-9.089700e-20
-4.179766e-18
7.142492e-19
2.416391e-18
2.578590e-19
1.793992e-18
-3.064644e-18
-1.853863e-18
-1.302205e-19
1.119066e-18
3.487134e-18
-1.111512e-18
1.566608e-18
1.227759e-17
3.878155e-17
1.033918e-16
3.028593e-16
8.595747e-16
2.342501e-15
6.404620e-15
1.740930e-14
4.695712e-14
1.234755e-13
3.061256e-13
6.696974e-13
1.092416e-12
2.200845e-13
-8.293669e-12
-4.719496e-11
-1.857030e-10
-6.094645e-10
-1.764761e-09
-4.620925e-09
-1.108584e-08
-2.455867e-08
-5.048979e-08
-9.664196e-08
-1.725575e-07
-2.876471e-07
-4.474719e-07
-6.483104e-07
-8.709516e-07
-1.075623e-06
-1.200628e-06
-1.167222e-06
-8.922126e-07
-3.079260e-07
6.131064e-07
1.833265e-06
3.230327e-06
4.588793e-06
5.606551e-06
5.919958e-06
5.148734e-06
2.959950e-06
-8.530103e-07
-6.285825e-06
-1.304931e-05
-2.052967e-05
-2.780986e-05
-3.377462e-05
-3.730515e-05
-3.754164e-05
-3.415912e-05
-2.757588e-05
-1.900745e-05
-1.030215e-05
-3.547522e-06
-5.125472e-07
-2.071222e-06
-7.808675e-06
-1.600420e-05
-2.408596e-05
-2.946875e-05
-3.048972e-05
-2.705791e-05
-2.071194e-05
-1.401922e-05
-9.540554e-06
-8.789883e-06
-1.164390e-05
-1.647738e-05
-2.097320e-05
-2.322251e-05
-2.257158e-05
-1.980092e-05
-1.658233e-05
-1.454362e-05
-1.445811e-05
-1.597332e-05
-1.797027e-05
-1.928893e-05
-1.937075e-05
-1.846122e-05
-1.731551e-05
-1.665669e-05
-1.675248e-05
-1.734987e-05
-1.794563e-05
-1.816034e-05
-1.795495e-05
-1.757784e-05
-1.733119e-05
-1.735219e-05
-1.755685e-05
-1.775148e-05
-1.779717e-05
-1.769737e-05
-1.756174e-05
-1.750001e-05
-1.754024e-05
-1.762720e-05
-1.768399e-05
-1.767549e-05
-1.762480e-05
-1.758111e-05
-1.757550e-05
-1.760185e-05
-1.763131e-05
-1.764069e-05
-1.762873e-05
-1.761090e-05
-1.760259e-05
-1.760719e-05
-1.761705e-05
-1.762287e-05
-1.762149e-05
-1.761643e-05
-1.761289e-05
0.000000e+00
0.000000e+00
-0.000000e+00
-0.000000e+00
-0.000000e+00
-0.000000e+00
-0.000000e+00
3.951571e-19
-5.927357e-19
1.778207e-18
7.903142e-19
-4.164934e-18
-1.094574e-18
5.289172e-18
1.580628e-18
-2.141795e-18
-1.256773e-18
-2.641177e-19
1.892509e-18
-3.715078e-18
2.492440e-18
7.570800e-21
2.413032e-18
2.973834e-19
-5.610889e-18
-8.740264e-18
-2.559652e-17
-9.451123e-17
-3.730311e-16
-1.236318e-15
-3.684573e-15
-1.024611e-14
-2.795830e-14
-8.145465e-14
-2.702047e-13
-1.000958e-12
-3.818034e-12
-1.401878e-11
-4.793534e-11
-1.508637e-10
-4.359086e-10
-1.156996e-09
-2.823878e-09
-6.339945e-09
-1.307849e-08
-2.470105e-08
-4.238123e-08
-6.499518e-08
-8.588795e-08
-8.814131e-08
-3.889248e-08
1.159416e-07
4.545150e-07
1.077351e-06
2.099720e-06
3.638320e-06
5.794387e-06
8.636801e-06
1.218885e-05
1.642094e-05
2.124897e-05
2.653588e-05
3.209267e-05
3.767651e-05
4.298634e-05
4.766101e-05
5.128805e-05
5.343356e-05
5.370096e-05
5.181962e-05
4.775257e-05
4.179704e-05
3.463981e-05
2.732671e-05
2.111985e-05
1.724805e-05
1.659621e-05
1.941475e-05
2.514520e-05
3.244592e-05
3.946043e-05
4.430206e-05
4.564016e-05
4.319164e-05
3.789831e-05
3.165364e-05
2.662934e-05
2.445534e-05
2.560369e-05
2.925055e-05
3.367796e-05
3.703784e-05
3.813963e-05
3.690674e-05
3.429522e-05
3.173121e-05
3.037286e-05
3.058766e-05
3.189829e-05
3.337464e-05
3.420717e-05
3.412270e-05
3.342872e-05
3.271262e-05
3.242720e-05
3.263650e-05
3.305829e-05
3.332732e-05
3.326706e-05
3.298185e-05
3.273222e-05
3.271502e-05
3.292266e-05
3.317492e-05
3.327700e-05
3.316861e-05
3.295298e-05
3.279922e-05
3.280819e-05
3.294798e-05
3.309753e-05
3.314966e-05
3.308676e-05
3.297710e-05
3.290839e-05
3.291987e-05
3.298409e-05
3.304206e-05
3.305387e-05
3.302344e-05
3.298449e-05
3.296775e-05
3.297892e-05
3.300137e-05
3.301505e-05
3.301258e-05
3.300103e-05
3.299208e-05
3.299159e-05
3.299703e-05
0.000000e+00
0.000000e+00
-0.000000e+00
-0.000000e+00
-0.000000e+00
-0.000000e+00
3.951571e-19
-7.903142e-19
3.860674e-18
3.465517e-18
-2.281951e-19
-1.459115e-18
2.203981e-18
1.018509e-18
-3.433948e-18
-2.306852e-18
-4.598872e-18
-3.630574e-18
1.051708e-18
-6.851450e-19
-3.180893e-18
-9.925885e-19
-1.484851e-18
-8.363837e-18
-1.855313e-17
-7.216632e-17
-2.066905e-16
-6.657434e-16
-2.023928e-15
-5.857478e-15
-1.627266e-14
-4.442251e-14
-1.236090e-13
-3.632971e-13
-1.140583e-12
-3.730849e-12
-1.218059e-11
-3.825144e-11
-1.128417e-10
-3.084827e-10
-7.748283e-10
-1.774474e-09
-3.666797e-09
-6.709189e-09
-1.042799e-08
-1.219166e-08
-4.586308e-09
2.861791e-08
1.176010e-07
3.115902e-07
6.819082e-07
1.320537e-06
2.332355e-06
3.821060e-06
5.871584e-06
8.534403e-06
1.181818e-05
1.569546e-05
2.012196e-05
2.506423e-05
3.052634e-05
3.656396e-05
4.327652e-05
5.077267e-05
5.911090e-05
6.822400e-05
7.784270e-05
8.743917e-05
9.621517e-05
1.031590e-04
1.071880e-04
1.073762e-04
1.032359e-04
9.498823e-05
8.372657e-05
7.137725e-05
6.039634e-05
5.322383e-05
5.161271e-05
5.602983e-05
6.534825e-05
7.699905e-05
8.762559e-05
9.410634e-05
9.463072e-05
8.940745e-05
8.064987e-05
7.175207e-05
6.594735e-05
6.502341e-05
6.867353e-05
7.477274e-05
8.043522e-05
8.334769e-05
8.274894e-05
7.959985e-05
7.589924e-05
7.354974e-05
7.340698e-05
7.500766e-05
7.705199e-05
7.827890e-05
7.818171e-05
7.716374e-05
7.611508e-05
7.575397e-05
7.618729e-05
7.694738e-05
7.741321e-05
7.727427e-05
7.670836e-05
7.618546e-05
7.608644e-05
7.643596e-05
7.692969e-05
7.719822e-05
7.708361e-05
7.672387e-05
7.640975e-05
7.635181e-05
7.654259e-05
7.680034e-05
7.693168e-05
7.687266e-05
7.670821e-05
7.657901e-05
7.656738e-05
7.665129e-05
7.674559e-05
7.678002e-05
7.674678e-05
7.668957e-05
7.665708e-05
7.666548e-05
7.669578e-05
7.671860e-05
7.671945e-05
7.670504e-05
7.669137e-05
7.668850e-05
0.000000e+00
0.000000e+00
-0.000000e+00
-0.000000e+00
-0.000000e+00
-0.000000e+00
-1.185471e-18
-1.778207e-18
6.994172e-19
-7.903142e-19
-1.702142e-18
-2.690035e-18
-4.099891e-19
-2.172411e-18
-1.867199e-18
3.484159e-18
3.250249e-18
4.319646e-18
4.918223e-18
3.440173e-18
-3.619193e-18
-4.474617e-18
-6.258440e-19
-7.884589e-18
-2.961347e-17
-1.209750e-16
-3.976377e-16
-1.159644e-15
-3.349188e-15
-9.286977e-15
-2.550401e-14
-7.218829e-14
-2.181872e-13
-7.064554e-13
-2.366184e-12
-7.822720e-12
-2.460334e-11
-7.191844e-11
-1.924715e-10
-4.654631e-10
-9.992078e-10
-1.839616e-09
-2.654141e-09
-1.947187e-09
4.518548e-09
2.637261e-08
8.231558e-08
2.040912e-07
4.390491e-07
8.487525e-07
1.501038e-06
2.454354e-06
3.736221e-06
5.321521e-06
7.119224e-06
8.976227e-06
1.070314e-05
1.212007e-05
1.311312e-05
1.368798e-05
1.400608e-05
1.439291e-05
1.531315e-05
1.731305e-05
2.093475e-05
2.661058e-05
3.454851e-05
4.462412e-05
5.629964e-05
6.859585e-05
8.014536e-05
8.935123e-05
9.465896e-05
9.491777e-05
8.976237e-05
7.990145e-05
6.717889e-05
5.430554e-05
4.425510e-05
3.945261e-05
4.100147e-05
4.823350e-05
5.879507e-05
6.931759e-05
7.650995e-05
7.831705e-05
7.468988e-05
6.759301e-05
6.016716e-05
5.537152e-05
5.472799e-05
5.777072e-05
6.245271e-05
6.627477e-05
6.754619e-05
6.613632e-05
6.335262e-05
6.105472e-05
6.053944e-05
6.185093e-05
6.389519e-05
6.523472e-05
6.502890e-05
6.352307e-05
6.180400e-05
6.102466e-05
6.163901e-05
6.315235e-05
6.451925e-05
6.487723e-05
6.409956e-05
6.280958e-05
6.189234e-05
6.188088e-05
6.264740e-05
6.357629e-05
6.404281e-05
6.383011e-05
6.320707e-05
6.266343e-05
6.253920e-05
6.282345e-05
6.323297e-05
6.346381e-05
6.340481e-05
6.317022e-05
6.296655e-05
6.292535e-05
6.302971e-05
6.316519e-05
6.322764e-05
6.319497e-05
6.311967e-05
6.306900e-05
6.307154e-05
6.310802e-05
6.314052e-05
6.314655e-05
6.313080e-05
6.311263e-05
0.000000e+00
0.000000e+00
-0.000000e+00
-0.000000e+00
-0.000000e+00
-0.000000e+00
-5.927357e-19
9.878928e-19
-5.152827e-18
-4.255831e-18
-1.732758e-18
-1.580628e-18
-6.381842e-19
-3.357883e-18
-3.626354e-19
2.245619e-18
-2.424831e-18
2.363447e-18
3.631092e-18
-1.327021e-19
-2.239310e-18
-3.772929e-18
-3.198839e-18
-9.141610e-18
-5.455117e-17
-1.531899e-16
-4.392540e-16
-1.244867e-15
-3.320148e-15
-9.109982e-15
-2.713299e-14
-9.077569e-14
-3.302750e-13
-1.214907e-12
-4.264469e-12
-1.382202e-11
-4.061584e-11
-1.065989e-10
-2.445735e-10
-4.686069e-10
-6.527683e-10
-1.909269e-10
2.765168e-09
1.271805e-08
3.897287e-08
9.815292e-08
2.158849e-07
4.254431e-07
7.605041e-07
1.239734e-06
1.843379e-06
2.486214e-06
2.995594e-06
3.105563e-06
2.475672e-06
7.363401e-07
-2.446483e-06
-7.301528e-06
-1.389330e-05
-2.208611e-05
-3.153575e-05
-4.170686e-05
-5.190954e-05
-6.134961e-05
-6.918896e-05
-7.461645e-05
-7.693113e-05
-7.563811e-05
-7.055193e-05
-6.189491e-05
-5.036921e-05
-3.717439e-05
-2.393877e-05
-1.253802e-05
-4.792099e-06
-2.069261e-06
-4.877777e-06
-1.257750e-05
-2.335872e-05
-3.458317e-05
-4.345679e-05
-4.785137e-05
-4.699005e-05
-4.172108e-05
-3.423369e-05
-2.727211e-05
-2.311280e-05
-2.270867e-05
-2.539034e-05
-2.929788e-05
-3.235671e-05
-3.330328e-05
-3.222215e-05
-3.032634e-05
-2.913567e-05
-2.953575e-05
-3.125944e-05
-3.309178e-05
-3.367457e-05
-3.241252e-05
-2.990282e-05
-2.760011e-05
-2.691492e-05
-2.831308e-05
-3.099715e-05
-3.338846e-05
-3.410950e-05
-3.283135e-05
-3.043886e-05
-2.842447e-05
-2.793015e-05
-2.907031e-05
-3.095481e-05
-3.234828e-05
-3.248482e-05
-3.148991e-05
-3.017463e-05
-2.941345e-05
-2.957261e-05
-3.036167e-05
-3.114310e-05
-3.141760e-05
-3.112603e-05
-3.059541e-05
-3.023436e-05
-3.023847e-05
-3.050806e-05
-3.078904e-05
-3.088743e-05
-3.078837e-05
-3.061827e-05
-3.051670e-05
-3.053367e-05
-3.061997e-05
-3.069210e-05
-3.070310e-05
-3.066540e-05
-3.062282e-05
-3.060813e-05
-3.062235e-05
0.000000e+00
0.000000e+00
-0.000000e+00
-0.000000e+00
-0.000000e+00
-0.000000e+00
2.766100e-18
-5.152827e-18
-2.872781e-18
1.930337e-18
-4.741885e-18
-3.860674e-18
-5.030361e-18
1.337601e-18
9.673453e-19
9.851687e-19
5.693221e-19
-3.999760e-18
-4.667333e-18
-4.349244e-18
-4.072836e-18
-2.987899e-18
-4.696780e-18
-1.442322e-17
-3.716942e-17
-1.006889e-16
-2.440618e-16
-5.149039e-16
-1.310282e-15
-5.226773e-15
-2.620571e-14
-1.279801e-13
-5.580912e-13
-2.137899e-12
-7.185652e-12
-2.109206e-11
-5.313960e-11
-1.093881e-10
-1.549779e-10
8.723208e-12
1.055672e-09
4.782174e-09
1.520422e-08
3.998838e-08
9.153394e-08
1.861132e-07
3.385237e-07
5.494374e-07
7.840140e-07
9.439360e-07
8.401373e-07
1.777659e-07
-1.434852e-06
-4.447259e-06
-9.302408e-06
-1.636178e-05
-2.584045e-05
-3.776967e-05
-5.199479e-05
-6.820430e-05
-8.597570e-05
-1.048197e-04
-1.242072e-04
-1.435705e-04
-1.622843e-04
-1.796387e-04
-1.948271e-04
-2.069688e-04
-2.151814e-04
-2.187054e-04
-2.170706e-04
-2.102769e-04
-1.989507e-04
-1.844278e-04
-1.687069e-04
-1.542274e-04
-1.434558e-04
-1.383257e-04
-1.396622e-04
-1.467979e-04
-1.575883e-04
-1.689350e-04
-1.777155e-04
-1.818094e-04
-1.808103e-04
-1.760983e-04
-1.701965e-04
-1.656521e-04
-1.639308e-04
-1.648567e-04
-1.669017e-04
-1.681815e-04
-1.676060e-04
-1.655235e-04
-1.634785e-04
-1.632154e-04
-1.655063e-04
-1.695198e-04
-1.731685e-04
-1.742983e-04
-1.720263e-04
-1.673842e-04
-1.628206e-04
-1.608152e-04
-1.624228e-04
-1.666392e-04
-1.710052e-04
-1.730909e-04
-1.719301e-04
-1.685070e-04
-1.650268e-04
-1.634917e-04
-1.645179e-04
-1.671173e-04
-1.694980e-04
-1.702770e-04
-1.692789e-04
-1.674546e-04
-1.660921e-04
-1.659383e-04
-1.668231e-04
-1.679497e-04
-1.685423e-04
-1.683506e-04
-1.676974e-04
-1.671308e-04
-1.670016e-04
-1.672755e-04
-1.676548e-04
-1.678524e-04
-1.677871e-04
-1.675834e-04
-1.674251e-04
-1.674084e-04
-1.674996e-04
-1.675988e-04
-1.676325e-04
-1.675987e-04
-1.675452e-04
-1.675178e-04
0.000000e+00
0.000000e+00
-0.000000e+00
-0.000000e+00
-0.000000e+00
1.975786e-19
8.969958e-19
-3.556414e-18
2.051851e-18
3.723376e-18
1.139070e-18
1.276368e-18
8.812112e-19
1.727996e-18
-1.185221e-19
1.675737e-18
-2.919876e-18
-3.015118e-18
-2.244449e-18
-4.322414e-18
-4.217323e-18
-2.531737e-18
8.101907e-19
5.768193e-18
1.342468e-17
8.759013e-17
3.310519e-16
9.572440e-16
1.538981e-15
-3.493390e-15
-4.497612e-14
-2.502355e-13
-1.045079e-12
-3.585438e-12
-1.024362e-11
-2.348525e-11
-3.648109e-11
3.826229e-12
3.049776e-10
1.485390e-09
5.069417e-09
1.423186e-08
3.450576e-08
7.353795e-08
1.380632e-07
2.254926e-07
3.077603e-07
3.073757e-07
7.031642e-08
-6.539319e-07
-2.211533e-06
-5.011666e-06
-9.461015e-06
-1.587822e-05
-2.441262e-05
-3.499457e-05
-4.733749e-05
-6.099659e-05
-7.547223e-05
-9.033093e-05
-1.053104e-04
-1.203773e-04
-1.357172e-04
-1.516554e-04
-1.685230e-04
-1.864963e-04
-2.054459e-04
-2.248319e-04
-2.436769e-04
-2.606396e-04
-2.741929e-04
-2.828906e-04
-2.856825e-04
-2.822176e-04
-2.730666e-04
-2.597879e-04
-2.447784e-04
-2.308763e-04
-2.207486e-04
-2.161842e-04
-2.175154e-04
-2.234312e-04
-2.313649e-04
-2.384132e-04
-2.424637e-04
-2.430273e-04
-2.413400e-04
-2.396150e-04
-2.397609e-04
-2.422203e-04
-2.456050e-04
-2.474308e-04
-2.456193e-04
-2.399278e-04
-2.324324e-04
-2.266822e-04
-2.258773e-04
-2.310056e-04
-2.400137e-04
-2.486309e-04
-2.525526e-04
-2.498069e-04
-2.419056e-04
-2.330557e-04
-2.278494e-04
-2.287444e-04
-2.347758e-04
-2.422475e-04
-2.469790e-04
-2.467229e-04
-2.422831e-04
-2.367350e-04
-2.333748e-04
-2.337591e-04
-2.370176e-04
-2.407247e-04
-2.426079e-04
-2.419115e-04
-2.395962e-04
-2.374235e-04
-2.366961e-04
-2.375275e-04
-2.390202e-04
-2.400650e-04
-2.401092e-04
-2.393880e-04
-2.385775e-04
-2.382342e-04
-2.384529e-04
-2.389243e-04
-2.392561e-04
-2.392654e-04
-2.390455e-04
-2.388203e-04
-2.387480e-04
-2.388293e-04
-2.389558e-04
-2.390222e-04
-2.390017e-04
-2.389393e-04
0.000000e+00
0.000000e+00
-0.000000e+00
-0.000000e+00
-0.000000e+00
-1.383050e-18
3.951571e-18
3.161257e-18
-1.975786e-19
-4.255831e-18
-2.477624e-18
8.051462e-19
3.612884e-18
3.593682e-19
-3.132278e-18
4.028580e-18
-2.212512e-19
-2.006862e-18
-1.429528e-18
-5.377909e-18
-2.222996e-18
4.474894e-18
9.358012e-18
3.002731e-17
1.163744e-16
3.809280e-16
1.025540e-15
2.117363e-15
1.171708e-15
-1.729288e-14
-1.184224e-13
-5.145718e-13
-1.733960e-12
-4.581771e-12
-8.340670e-12
-1.671820e-12
6.893794e-11
3.857541e-10
1.453099e-09
4.439533e-09
1.159862e-08
2.636654e-08
5.209567e-08
8.754935e-08
1.167919e-07
9.197448e-08
-8.922206e-08
-6.040961e-07
-1.710173e-06
-3.720183e-06
-6.937855e-06
-1.155981e-05
-1.756603e-05
-2.463361e-05
-3.210981e-05
-3.906858e-05
-4.445289e-05
-4.727904e-05
-4.685607e-05
-4.296429e-05
-3.594623e-05
-2.668986e-05
-1.651505e-05
-6.995386e-06
2.484305e-07
3.756751e-06
2.425767e-06
-4.321612e-06
-1.640463e-05
-3.301918e-05
-5.266907e-05
-7.331750e-05
-9.265968e-05
-1.084853e-04
-1.190694e-04
-1.235133e-04
-1.219537e-04
-1.155736e-04
-1.063729e-04
-9.670041e-05
-8.862596e-05
-8.332864e-05
-8.075432e-05
-7.977168e-05
-7.886871e-05
-7.712904e-05
-7.497711e-05
-7.418054e-05
-7.692628e-05
-8.432576e-05
-9.516977e-05
-1.058149e-04
-1.115638e-04
-1.090046e-04
-9.807797e-05
-8.265260e-05
-6.913029e-05
-6.359314e-05
-6.878213e-05
-8.245225e-05
-9.817862e-05
-1.084715e-04
-1.086380e-04
-9.921066e-05
-8.554006e-05
-7.480877e-05
-7.216527e-05
-7.810501e-05
-8.851619e-05
-9.730314e-05
-9.997123e-05
-9.599221e-05
-8.862656e-05
-8.255488e-05
-8.097319e-05
-8.394915e-05
-8.887417e-05
-9.246862e-05
-9.288501e-05
-9.057177e-05
-8.754866e-05
-8.583018e-05
-8.616251e-05
-8.782837e-05
-8.943681e-05
-8.997908e-05
-8.939385e-05
-8.837174e-05
-8.770499e-05
-8.773131e-05
-8.822894e-05
-8.872177e-05
-8.887732e-05
-8.869474e-05
-8.840744e-05
-8.824883e-05
-8.828750e-05
-8.843007e-05
-8.853988e-05
-8.854963e-05
0.000000e+00
0.000000e+00
-0.000000e+00
3.951571e-19
1.975786e-19
-1.489731e-18
2.173364e-18
-3.739160e-18
-1.565796e-18
-2.523073e-18
-7.903142e-19
-6.410419e-19
3.724872e-18
4.867886e-18
3.012252e-18
-1.556262e-18
-3.144303e-18
-2.492441e-18
3.246945e-18
-1.808902e-18
3.254639e-19
5.217389e-18
1.841089e-17
6.522955e-17
2.303210e-16
5.981155e-16
1.200804e-15
6.961840e-16
-8.973773e-15
-6.059995e-14
-2.537557e-13
-7.940874e-13
-1.750711e-12
-1.254911e-12
1.211102e-11
8.385113e-11
3.575259e-10
1.208931e-09
3.455898e-09
8.520018e-09
1.808053e-08
3.216017e-08
4.389319e-08
2.908633e-08
-6.979769e-08
-3.614466e-07
-1.015141e-06
-2.246102e-06
-4.261235e-06
-7.159769e-06
-1.080229e-05
-1.468314e-05
-1.785562e-05
-1.895869e-05
-1.637352e-05
-8.498330e-06
5.918639e-06
2.748543e-05
5.600844e-05
9.051971e-05
1.294662e-04
1.709786e-04
2.131232e-04
2.540718e-04
2.921761e-04
3.259768e-04
3.541927e-04
3.757362e-04
3.897779e-04
3.958597e-04
3.940329e-04
3.849741e-04
3.700273e-04
3.511300e-04
3.306075e-04
3.108581e-04
2.939875e-04
2.814693e-04
2.739183e-04
2.710530e-04
2.719012e-04
2.752352e-04
2.801176e-04
2.863096e-04
2.942531e-04
3.044783e-04
3.166282e-04
3.286501e-04
3.368292e-04
3.370332e-04
3.268692e-04
3.077142e-04
2.852747e-04
2.678646e-04
2.628708e-04
2.731051e-04
2.949995e-04
3.197023e-04
3.367440e-04
3.387667e-04
3.251743e-04
3.027153e-04
2.822940e-04
2.734334e-04
2.794335e-04
2.959666e-04
3.137728e-04
3.237901e-04
3.218708e-04
3.105810e-04
2.971961e-04
2.891923e-04
2.900320e-04
2.977340e-04
3.067851e-04
3.118451e-04
3.108139e-04
3.055225e-04
2.999587e-04
2.974693e-04
2.988453e-04
3.023518e-04
3.053359e-04
3.060869e-04
3.047042e-04
3.026145e-04
3.013356e-04
3.014669e-04
3.025283e-04
3.035593e-04
3.038881e-04
3.035050e-04
3.028837e-04
3.025191e-04
3.025796e-04
3.028871e-04
3.031473e-04
3.031936e-04
3.030654e-04
3.029136e-04
0.000000e+00
0.000000e+00
-0.000000e+00
-1.185471e-18
-5.927357e-19
1.778207e-18
-2.884755e-19
1.185471e-18
-1.109406e-18
-2.599138e-18
-1.688672e-19
2.331753e-18
2.786781e-18
-4.041398e-19
-3.365219e-18
2.015975e-19
-3.880847e-18
-1.969989e-18
2.003810e-18
4.441471e-19
5.251382e-18
9.264477e-18
3.986980e-17
1.017405e-16
2.494142e-16
4.322680e-16
-1.522948e-16
-5.754719e-15
-3.208985e-14
-1.206989e-13
-3.234316e-13
-4.236107e-13
1.565048e-12
1.516517e-11
7.510003e-11
2.851944e-10
9.035353e-10
2.449927e-09
5.685060e-09
1.099481e-08
1.618662e-08
1.119843e-08
-3.155059e-08
-1.703069e-07
-5.048545e-07
-1.172508e-06
-2.311689e-06
-3.978329e-06
-6.015235e-06
-7.900173e-06
-8.626776e-06
-6.690280e-06
-2.422502e-07
1.256775e-05
3.312852e-05
6.193277e-05
9.835483e-05
1.407559e-04
1.868862e-04
2.344205e-04
2.814231e-04
3.266040e-04
3.693409e-04
4.095286e-04
4.473499e-04
4.830438e-04
5.167203e-04
5.482398e-04
5.771669e-04
6.027999e-04
6.242729e-04
6.407168e-04
6.514531e-04
6.561727e-04
6.550555e-04
6.487892e-04
6.384770e-04
6.254530e-04