# vtk DataFile Version 3.0
Resultado Projeto 3
ASCII
DATASET STRUCTURED_GRID
DIMENSIONS 140 60 1 
POINTS 8400 double
0.000000e+00 0.000000e+00 0.000000e+00
2.517986e-02 0.000000e+00 0.000000e+00
5.035971e-02 0.000000e+00 0.000000e+00
7.553957e-02 0.000000e+00 0.000000e+00
1.007194e-01 0.000000e+00 0.000000e+00
1.258993e-01 0.000000e+00 0.000000e+00
1.510791e-01 0.000000e+00 0.000000e+00
1.762590e-01 0.000000e+00 0.000000e+00
2.014388e-01 0.000000e+00 0.000000e+00
2.266187e-01 0.000000e+00 0.000000e+00
2.517986e-01 0.000000e+00 0.000000e+00
2.769784e-01 0.000000e+00 0.000000e+00
3.021583e-01 0.000000e+00 0.000000e+00
3.273381e-01 0.000000e+00 0.000000e+00
3.525180e-01 0.000000e+00 0.000000e+00
3.776978e-01 0.000000e+00 0.000000e+00
4.028777e-01 0.000000e+00 0.000000e+00
4.280576e-01 0.000000e+00 0.000000e+00
4.532374e-01 0.000000e+00 0.000000e+00
4.784173e-01 0.000000e+00 0.000000e+00
5.035971e-01 0.000000e+00 0.000000e+00
5.287770e-01 0.000000e+00 0.000000e+00
5.539568e-01 0.000000e+00 0.000000e+00
5.791367e-01 0.000000e+00 0.000000e+00
6.043165e-01 0.000000e+00 0.000000e+00
6.294964e-01 0.000000e+00 0.000000e+00
6.546763e-01 0.000000e+00 0.000000e+00
6.798561e-01 0.000000e+00 0.000000e+00
7.050360e-01 0.000000e+00 0.000000e+00
7.302158e-01 0.000000e+00 0.000000e+00
7.553957e-01 0.000000e+00 0.000000e+00
7.805755e-01 0.000000e+00 0.000000e+00
8.057554e-01 0.000000e+00 0.000000e+00
8.309353e-01 0.000000e+00 0.000000e+00
8.561151e-01 0.000000e+00 0.000000e+00
8.812950e-01 0.000000e+00 0.000000e+00
9.064748e-01 0.000000e+00 0.000000e+00
9.316547e-01 0.000000e+00 0.000000e+00
9.568345e-01 0.000000e+00 0.000000e+00
9.820144e-01 0.000000e+00 0.000000e+00
1.007194e+00 0.000000e+00 0.000000e+00
1.032374e+00 0.000000e+00 0.000000e+00
1.057554e+00 0.000000e+00 0.000000e+00
1.082734e+00 0.000000e+00 0.000000e+00
1.107914e+00 0.000000e+00 0.000000e+00
1.133094e+00 0.000000e+00 0.000000e+00
1.158273e+00 0.000000e+00 0.000000e+00
1.183453e+00 0.000000e+00 0.000000e+00
1.208633e+00 0.000000e+00 0.000000e+00
1.233813e+00 0.000000e+00 0.000000e+00
1.258993e+00 0.000000e+00 0.000000e+00
1.284173e+00 0.000000e+00 0.000000e+00
1.309353e+00 0.000000e+00 0.000000e+00
1.334532e+00 0.000000e+00 0.000000e+00
1.359712e+00 0.000000e+00 0.000000e+00
1.384892e+00 0.000000e+00 0.000000e+00
1.410072e+00 0.000000e+00 0.000000e+00
1.435252e+00 0.000000e+00 0.000000e+00
1.460432e+00 0.000000e+00 0.000000e+00
1.485612e+00 0.000000e+00 0.000000e+00
1.510791e+00 0.000000e+00 0.000000e+00
1.535971e+00 0.000000e+00 0.000000e+00
1.561151e+00 0.000000e+00 0.000000e+00
1.586331e+00 0.000000e+00 0.000000e+00
1.611511e+00 0.000000e+00 0.000000e+00
1.636691e+00 0.000000e+00 0.000000e+00
1.661871e+00 0.000000e+00 0.000000e+00
1.687050e+00 0.000000e+00 0.000000e+00
1.712230e+00 0.000000e+00 0.000000e+00
1.737410e+00 0.000000e+00 0.000000e+00
1.762590e+00 0.000000e+00 0.000000e+00
1.787770e+00 0.000000e+00 0.000000e+00
1.812950e+00 0.000000e+00 0.000000e+00
1.838129e+00 0.000000e+00 0.000000e+00
1.863309e+00 0.000000e+00 0.000000e+00
1.888489e+00 0.000000e+00 0.000000e+00
1.913669e+00 0.000000e+00 0.000000e+00
1.938849e+00 0.000000e+00 0.000000e+00
1.964029e+00 0.000000e+00 0.000000e+00
1.989209e+00 0.000000e+00 0.000000e+00
2.014388e+00 0.000000e+00 0.000000e+00
2.039568e+00 0.000000e+00 0.000000e+00
2.064748e+00 0.000000e+00 0.000000e+00
2.089928e+00 0.000000e+00 0.000000e+00
2.115108e+00 0.000000e+00 0.000000e+00
2.140288e+00 0.000000e+00 0.000000e+00
2.165468e+00 0.000000e+00 0.000000e+00
2.190647e+00 0.000000e+00 0.000000e+00
2.215827e+00 0.000000e+00 0.000000e+00
2.241007e+00 0.000000e+00 0.000000e+00
2.266187e+00 0.000000e+00 0.000000e+00
2.291367e+00 0.000000e+00 0.000000e+00
2.316547e+00 0.000000e+00 0.000000e+00
2.341727e+00 0.000000e+00 0.000000e+00
2.366906e+00 0.000000e+00 0.000000e+00
2.392086e+00 0.000000e+00 0.000000e+00
2.417266e+00 0.000000e+00 0.000000e+00
2.442446e+00 0.000000e+00 0.000000e+00
2.467626e+00 0.000000e+00 0.000000e+00
2.492806e+00 0.000000e+00 0.000000e+00
2.517986e+00 0.000000e+00 0.000000e+00
2.543165e+00 0.000000e+00 0.000000e+00
2.568345e+00 0.000000e+00 0.000000e+00
2.593525e+00 0.000000e+00 0.000000e+00
2.618705e+00 0.000000e+00 0.000000e+00
2.643885e+00 0.000000e+00 0.000000e+00
2.669065e+00 0.000000e+00 0.000000e+00
2.694245e+00 0.000000e+00 0.000000e+00
2.719424e+00 0.000000e+00 0.000000e+00
2.744604e+00 0.000000e+00 0.000000e+00
2.769784e+00 0.000000e+00 0.000000e+00
2.794964e+00 0.000000e+00 0.000000e+00
2.820144e+00 0.000000e+00 0.000000e+00
2.845324e+00 0.000000e+00 0.000000e+00
2.870504e+00 0.000000e+00 0.000000e+00
2.895683e+00 0.000000e+00 0.000000e+00
2.920863e+00 0.000000e+00 0.000000e+00
2.946043e+00 0.000000e+00 0.000000e+00
2.971223e+00 0.000000e+00 0.000000e+00
2.996403e+00 0.000000e+00 0.000000e+00
3.021583e+00 0.000000e+00 0.000000e+00
3.046763e+00 0.000000e+00 0.000000e+00
3.071942e+00 0.000000e+00 0.000000e+00
3.097122e+00 0.000000e+00 0.000000e+00
3.122302e+00 0.000000e+00 0.000000e+00
3.147482e+00 0.000000e+00 0.000000e+00
3.172662e+00 0.000000e+00 0.000000e+00
3.197842e+00 0.000000e+00 0.000000e+00
3.223022e+00 0.000000e+00 0.000000e+00
3.248201e+00 0.000000e+00 0.000000e+00
3.273381e+00 0.000000e+00 0.000000e+00
3.298561e+00 0.000000e+00 0.000000e+00
3.323741e+00 0.000000e+00 0.000000e+00
3.348921e+00 0.000000e+00 0.000000e+00
3.374101e+00 0.000000e+00 0.000000e+00
3.399281e+00 0.000000e+00 0.000000e+00
3.424460e+00 0.000000e+00 0.000000e+00
3.449640e+00 0.000000e+00 0.000000e+00
3.474820e+00 0.000000e+00 0.000000e+00
3.500000e+00 0.000000e+00 0.000000e+00
0.000000e+00 1.694915e-02 0.000000e+00
2.517986e-02 1.694915e-02 0.000000e+00
5.035971e-02 1.694915e-02 0.000000e+00
7.553957e-02 1.694915e-02 0.000000e+00
1.007194e-01 1.694915e-02 0.000000e+00
1.258993e-01 1.694915e-02 0.000000e+00
1.510791e-01 1.694915e-02 0.000000e+00
1.762590e-01 1.694915e-02 0.000000e+00
2.014388e-01 1.694915e-02 0.000000e+00
2.266187e-01 1.694915e-02 0.000000e+00
2.517986e-01 1.694915e-02 0.000000e+00
2.769784e-01 1.694915e-02 0.000000e+00
3.021583e-01 1.694915e-02 0.000000e+00
3.273381e-01 1.694915e-02 0.000000e+00
3.525180e-01 1.694915e-02 0.000000e+00
3.776978e-01 1.694915e-02 0.000000e+00
4.028777e-01 1.694915e-02 0.000000e+00
4.280576e-01 1.694915e-02 0.000000e+00
4.532374e-01 1.694915e-02 0.000000e+00
4.784173e-01 1.694915e-02 0.000000e+00
5.035971e-01 1.694915e-02 0.000000e+00
5.287770e-01 1.694915e-02 0.000000e+00
5.539568e-01 1.694915e-02 0.000000e+00
5.791367e-01 1.694915e-02 0.000000e+00
6.043165e-01 1.694915e-02 0.000000e+00
6.294964e-01 1.694915e-02 0.000000e+00
6.546763e-01 1.694915e-02 0.000000e+00
6.798561e-01 1.694915e-02 0.000000e+00
7.050360e-01 1.694915e-02 0.000000e+00
7.302158e-01 1.694915e-02 0.000000e+00
7.553957e-01 1.694915e-02 0.000000e+00
7.805755e-01 1.694915e-02 0.000000e+00
8.057554e-01 1.694915e-02 0.000000e+00
8.309353e-01 1.694915e-02 0.000000e+00
8.561151e-01 1.694915e-02 0.000000e+00
8.812950e-01 1.694915e-02 0.000000e+00
9.064748e-01 1.694915e-02 0.000000e+00
9.316547e-01 1.694915e-02 0.000000e+00
9.568345e-01 1.694915e-02 0.000000e+00
9.820144e-01 1.694915e-02 0.000000e+00
1.007194e+00 1.694915e-02 0.000000e+00
1.032374e+00 1.694915e-02 0.000000e+00
1.057554e+00 1.694915e-02 0.000000e+00
1.082734e+00 1.694915e-02 0.000000e+00
1.107914e+00 1.694915e-02 0.000000e+00
1.133094e+00 1.694915e-02 0.000000e+00
1.158273e+00 1.694915e-02 0.000000e+00
1.183453e+00 1.694915e-02 0.000000e+00
1.208633e+00 1.694915e-02 0.000000e+00
1.233813e+00 1.694915e-02 0.000000e+00
1.258993e+00 1.694915e-02 0.000000e+00
1.284173e+00 1.694915e-02 0.000000e+00
1.309353e+00 1.694915e-02 0.000000e+00
1.334532e+00 1.694915e-02 0.000000e+00
1.359712e+00 1.694915e-02 0.000000e+00
1.384892e+00 1.694915e-02 0.000000e+00
1.410072e+00 1.694915e-02 0.000000e+00
1.435252e+00 1.694915e-02 0.000000e+00
1.460432e+00 1.694915e-02 0.000000e+00
1.485612e+00 1.694915e-02 0.000000e+00
1.510791e+00 1.694915e-02 0.000000e+00
1.535971e+00 1.694915e-02 0.000000e+00
1.561151e+00 1.694915e-02 0.000000e+00
1.586331e+00 1.694915e-02 0.000000e+00
1.611511e+00 1.694915e-02 0.000000e+00
1.636691e+00 1.694915e-02 0.000000e+00
1.661871e+00 1.694915e-02 0.000000e+00
1.687050e+00 1.694915e-02 0.000000e+00
1.712230e+00 1.694915e-02 0.000000e+00
1.737410e+00 1.694915e-02 0.000000e+00
1.762590e+00 1.694915e-02 0.000000e+00
1.787770e+00 1.694915e-02 0.000000e+00
1.812950e+00 1.694915e-02 0.000000e+00
1.838129e+00 1.694915e-02 0.000000e+00
1.863309e+00 1.694915e-02 0.000000e+00
1.888489e+00 1.694915e-02 0.000000e+00
1.913669e+00 1.694915e-02 0.000000e+00
1.938849e+00 1.694915e-02 0.000000e+00
1.964029e+00 1.694915e-02 0.000000e+00
1.989209e+00 1.694915e-02 0.000000e+00
2.014388e+00 1.694915e-02 0.000000e+00
2.039568e+00 1.694915e-02 0.000000e+00
2.064748e+00 1.694915e-02 0.000000e+00
2.089928e+00 1.694915e-02 0.000000e+00
2.115108e+00 1.694915e-02 0.000000e+00
2.140288e+00 1.694915e-02 0.000000e+00
2.165468e+00 1.694915e-02 0.000000e+00
2.190647e+00 1.694915e-02 0.000000e+00
2.215827e+00 1.694915e-02 0.000000e+00
2.241007e+00 1.694915e-02 0.000000e+00
2.266187e+00 1.694915e-02 0.000000e+00
2.291367e+00 1.694915e-02 0.000000e+00
2.316547e+00 1.694915e-02 0.000000e+00
2.341727e+00 1.694915e-02 0.000000e+00
2.366906e+00 1.694915e-02 0.000000e+00
2.392086e+00 1.694915e-02 0.000000e+00
2.417266e+00 1.694915e-02 0.000000e+00
2.442446e+00 1.694915e-02 0.000000e+00
2.467626e+00 1.694915e-02 0.000000e+00
2.492806e+00 1.694915e-02 0.000000e+00
2.517986e+00 1.694915e-02 0.000000e+00
2.543165e+00 1.694915e-02 0.000000e+00
2.568345e+00 1.694915e-02 0.000000e+00
2.593525e+00 1.694915e-02 0.000000e+00
2.618705e+00 1.694915e-02 0.000000e+00
2.643885e+00 1.694915e-02 0.000000e+00
2.669065e+00 1.694915e-02 0.000000e+00
2.694245e+00 1.694915e-02 0.000000e+00
2.719424e+00 1.694915e-02 0.000000e+00
2.744604e+00 1.694915e-02 0.000000e+00
2.769784e+00 1.694915e-02 0.000000e+00
2.794964e+00 1.694915e-02 0.000000e+00
2.820144e+00 1.694915e-02 0.000000e+00
[...]
POINT_DATA 8400
SCALARS RES_Cont double
LOOKUP_TABLE default
0.000000e+00
0.000000e+00
0.000000e+00
0.000000e+00
0.000000e+00
0.000000e+00
0.000000e+00
0.000000e+00
0.000000e+00
0.000000e+00
0.000000e+00
0.000000e+00
0.000000e+00
0.000000e+00
0.000000e+00
0.000000e+00
0.000000e+00
0.000000e+00
0.000000e+00
0.000000e+00
0.000000e+00
0.000000e+00
0.000000e+00
0.000000e+00
0.000000e+00
0.000000e+00
0.000000e+00
0.000000e+00
0.000000e+00
0.000000e+00
0.000000e+00
0.000000e+00
0.000000e+00
0.000000e+00
0.000000e+00
0.000000e+00
0.000000e+00
0.000000e+00
0.000000e+00
0.000000e+00
0.000000e+00
0.000000e+00
0.000000e+00
0.000000e+00
0.000000e+00
0.000000e+00
0.000000e+00
0.000000e+00
0.000000e+00
0.000000e+00
0.000000e+00
0.000000e+00
0.000000e+00
0.000000e+00
0.000000e+00
0.000000e+00
0.000000e+00
0.000000e+00
0.000000e+00
0.000000e+00
0.000000e+00
0.000000e+00
0.000000e+00
0.000000e+00
0.000000e+00
0.000000e+00
0.000000e+00
0.000000e+00
0.000000e+00
0.000000e+00
0.000000e+00
0.000000e+00
0.000000e+00
0.000000e+00
0.000000e+00
0.000000e+00
0.000000e+00
0.000000e+00
0.000000e+00
0.000000e+00
0.000000e+00
0.000000e+00
0.000000e+00
0.000000e+00
0.000000e+00
0.000000e+00
0.000000e+00
0.000000e+00
0.000000e+00
0.000000e+00
0.000000e+00
0.000000e+00
0.000000e+00
0.000000e+00
0.000000e+00
0.000000e+00
0.000000e+00
0.000000e+00
0.000000e+00
0.000000e+00
0.000000e+00
0.000000e+00
0.000000e+00
0.000000e+00
0.000000e+00
0.000000e+00
0.000000e+00
0.000000e+00
0.000000e+00
0.000000e+00
0.000000e+00
0.000000e+00
0.000000e+00
0.000000e+00
0.000000e+00
0.000000e+00
0.000000e+00
0.000000e+00
0.000000e+00
0.000000e+00
0.000000e+00
0.000000e+00
0.000000e+00
0.000000e+00
0.000000e+00
0.000000e+00
0.000000e+00
0.000000e+00
0.000000e+00
0.000000e+00
0.000000e+00
0.000000e+00
0.000000e+00
0.000000e+00
0.000000e+00
0.000000e+00
0.000000e+00
0.000000e+00
0.000000e+00
0.000000e+00
0.000000e+00
-0.000000e+00
-0.000000e+00
-0.000000e+00
-0.000000e+00
-0.000000e+00
-0.000000e+00
3.951571e-19
-2.766100e-18
2.082467e-18
2.280046e-18
-4.179766e-18
-8.663792e-19
2.416391e-18
2.578590e-19
1.793992e-18
-1.484016e-18
-2.249020e-18
-5.253776e-19
1.909380e-18
-1.665693e-18
4.132212e-18
-7.431019e-19
1.456216e-18
-3.120889e-18
3.624877e-19
4.338613e-18
-2.664903e-18
1.595629e-19
1.550128e-18
1.664343e-18
-2.373046e-18
-2.794054e-18
3.644665e-18
4.348978e-18
6.850600e-20
-7.551075e-19
2.135495e-18
4.542930e-18
1.361674e-19
4.364301e-18
4.312424e-19
6.000725e-18
-4.247811e-19
-4.493182e-19
-3.682867e-19
-5.379417e-18
-2.772364e-18
8.007520e-19
4.514565e-18
1.979929e-18
1.146332e-18
-5.204667e-18
-2.827659e-18
6.178507e-17
5.546805e-16
3.333964e-15
1.560967e-14
5.758547e-14
1.518348e-13
1.279821e-13
-1.515161e-12
-1.227205e-11
-6.046712e-11
-2.285547e-10
-6.569077e-10
-1.053975e-09
2.128163e-09
2.148743e-08
7.668996e-08
1.902430e-07
3.944744e-07
7.392628e-07
1.303683e-06
2.210438e-06
3.636585e-06
5.818061e-06
9.039418e-06
1.360027e-05
1.975888e-05
2.766357e-05
3.728824e-05
4.838889e-05
6.049464e-05
7.293960e-05
8.493215e-05
9.564819e-05
1.043293e-04
1.103667e-04
1.133587e-04
1.131393e-04
1.097831e-04
1.035941e-04
9.508624e-05
8.495508e-05
7.403693e-05
6.324655e-05
5.348751e-05
4.553731e-05
3.992354e-05
3.682046e-05
3.600061e-05
3.686753e-05
3.857285e-05
4.019338e-05
4.092324e-05
4.023171e-05
3.794977e-05
3.426980e-05
2.966575e-05
2.475821e-05
2.015900e-05
1.633253e-05
1.350600e-05
1.164759e-05
1.051311e-05
9.742362e-06
8.973268e-06
7.939304e-06
6.524827e-06
4.768736e-06
2.823795e-06
8.910725e-07
-8.467842e-07
-2.273297e-06
-3.355959e-06
-4.134275e-06
-4.687504e-06
-5.096249e-06
-5.411302e-06
-5.638108e-06
-5.738388e-06
-5.644500e-06
-5.278870e-06
-4.570845e-06
-3.465910e-06
-1.925860e-06
7.812021e-08
2.575721e-06
0.000000e+00
0.000000e+00
-0.000000e+00
-0.000000e+00
-0.000000e+00
-0.000000e+00
-0.000000e+00
3.951571e-19
-5.927357e-19
1.778207e-18
7.903142e-19
-3.769777e-18
-1.094574e-18
5.684329e-18
1.580628e-18
-2.141795e-18
-1.059195e-18
-1.647168e-18
3.473138e-18
-1.541714e-18
-2.948863e-18
1.142524e-19
-1.188830e-18
-2.499037e-19
-1.506236e-18
1.050624e-18
-3.108179e-19
-1.920235e-18
-4.955105e-19
1.166480e-18
1.157509e-18
-3.355834e-18
-7.602581e-19
2.455278e-19
5.316550e-19
2.620430e-18
1.400238e-18
-1.910119e-18
-7.647374e-19
-3.314508e-18
1.289925e-18
4.323399e-18
6.310880e-19
3.212303e-18
-5.168720e-19
2.380371e-18
7.846237e-19
3.904764e-18
7.056048e-18
4.200848e-18
2.686642e-18
1.523156e-17
1.617722e-17
-2.252914e-18
2.354858e-18
2.194018e-16
1.228233e-15
5.447055e-15
1.877051e-14
4.116145e-14
-2.768457e-14
-8.895556e-13
-5.829376e-12
-2.686611e-11
-9.720009e-11
-2.557457e-10
-2.253580e-10
2.065355e-09
1.217687e-08
3.509347e-08
7.441259e-08
1.433832e-07
2.850666e-07
5.879498e-07
1.171366e-06
2.164700e-06
3.719118e-06
6.027472e-06
9.329030e-06
1.389432e-05
1.998079e-05
2.776290e-05
3.725410e-05
4.824576e-05
6.028552e-05
7.270666e-05
8.470417e-05
9.543833e-05
1.041405e-04
1.101998e-04
1.132184e-04
1.130376e-04
1.097389e-04
1.036317e-04
9.523234e-05
8.523491e-05
7.446941e-05
6.383838e-05
5.422725e-05
4.639140e-05
4.083643e-05
3.772050e-05
3.681161e-05
3.752364e-05
3.903286e-05
4.045016e-05
4.100543e-05
4.019713e-05
3.787222e-05
3.422254e-05
2.970557e-05
2.491372e-05
2.042604e-05
1.667771e-05
1.387758e-05
1.199053e-05
1.078394e-05
9.919487e-06
9.060020e-06
7.959384e-06
6.512257e-06
4.755929e-06
2.831616e-06
9.237265e-07
-8.010159e-07
-2.236405e-06
-3.352022e-06
-4.181616e-06
-4.793531e-06
-5.256112e-06
-5.610074e-06
-5.855130e-06
-5.952019e-06
-5.835776e-06
-5.433384e-06
-4.679071e-06
-3.522905e-06
-1.931632e-06
1.164781e-07
2.639489e-06
0.000000e+00
0.000000e+00
-0.000000e+00
-0.000000e+00
-0.000000e+00
-0.000000e+00
3.951571e-19
-7.903142e-19
3.860674e-18
3.465517e-18
-2.281951e-19
-2.447008e-18
2.203981e-18
1.808823e-18
-3.236369e-18
-2.306852e-18
-5.389186e-18
-2.049945e-18
1.842022e-18
-2.068195e-18
-2.390579e-18
2.077771e-18
1.190351e-18
1.120886e-18
2.665746e-18
3.300521e-18
-3.529972e-19
-4.207158e-18
-5.929693e-18
3.142990e-18
2.861876e-18
2.774320e-18
3.129085e-18
5.980059e-18
3.222058e-18
-2.610998e-18
-1.764448e-18
-1.725832e-18
4.255096e-18
3.837747e-18
1.365652e-18
-1.949945e-18
4.588604e-18
2.722877e-18
-2.221993e-18
1.120797e-18
3.695569e-18
3.527239e-18
1.299440e-17
6.898345e-18
1.809291e-18
7.606603e-18
1.523439e-17
3.153819e-17
9.576765e-17
5.110378e-16
2.167617e-15
6.775081e-15
9.848138e-15
-5.224887e-14
-5.634818e-13
-3.220532e-12
-1.394857e-11
-4.757386e-11
-1.089975e-10
2.567427e-11
1.650431e-09
7.655698e-09
1.994903e-08
3.901120e-08
6.705271e-08
1.127347e-07
2.011064e-07
3.994450e-07
8.610227e-07
1.824155e-06
3.517781e-06
6.100512e-06
9.702525e-06
1.447130e-05
2.058819e-05
2.823198e-05
3.748422e-05
4.822338e-05
6.006367e-05
7.236699e-05
8.432297e-05
9.506871e-05
1.038113e-04
1.099249e-04
1.130086e-04
1.129093e-04
1.097177e-04
1.037521e-04
9.553352e-05
8.575433e-05
7.523411e-05
6.485509e-05
5.547313e-05
4.780851e-05
4.233325e-05
3.918265e-05
3.812101e-05
3.858206e-05
3.978326e-05
4.088952e-05
4.118514e-05
4.021065e-05
3.783328e-05
3.423936e-05
2.985715e-05
2.523364e-05
2.089767e-05
1.724207e-05
1.445171e-05
1.249120e-05
1.114972e-05
1.012487e-05
9.117806e-06
7.911649e-06
6.413719e-06
4.655624e-06
2.758715e-06
8.813548e-07
-8.330652e-07
-2.292023e-06
-3.466087e-06
-4.378547e-06
-5.080399e-06
-5.621641e-06
-6.028776e-06
-6.294271e-06
-6.378646e-06
-6.221649e-06
-5.756938e-06
-4.924998e-06
-3.680963e-06
-1.996638e-06
1.418762e-07
2.738490e-06
0.000000e+00
0.000000e+00
-0.000000e+00
-0.000000e+00
-0.000000e+00
-0.000000e+00
-1.185471e-18
-1.778207e-18
6.994172e-19
-3.951571e-19
-1.702142e-18
-2.492456e-18
-4.099891e-19
-2.567569e-18
-3.052670e-18
3.484159e-18
3.250249e-18
9.608108e-19
5.714947e-19
3.151698e-18
4.102155e-18
-1.427212e-19
-2.586798e-18
5.816246e-19
2.385772e-19
-1.857188e-18
6.896002e-19
8.078911e-19
-3.231563e-18
3.270810e-18
4.635243e-18
-3.184482e-19
8.103829e-19
1.374231e-18
1.247173e-18
-3.827433e-18
-3.681831e-18
8.175530e-19
-2.066647e-18
1.684053e-18
4.768983e-19
8.375291e-19
-2.022939e-18
-5.521649e-18
-1.796180e-18
-2.610379e-18
-6.345058e-18
-3.930022e-18
-8.925986e-18
-4.904418e-18
1.409807e-17
2.283800e-17
2.230330e-17
4.318912e-17
2.022301e-16
8.552142e-16
2.400828e-15
1.174266e-15
-3.840553e-14
-3.169161e-13
-1.697339e-12
-7.110888e-12
-2.314637e-11
-4.471146e-11
8.193738e-11
1.102839e-09
4.430635e-09
1.099282e-08
2.155255e-08
3.807512e-08
6.509784e-08
1.110970e-07
1.903298e-07
3.305634e-07
6.047947e-07
1.219764e-06
2.606930e-06
5.263151e-06
9.404402e-06
1.494557e-05
2.172589e-05
2.966048e-05
3.877378e-05
4.907643e-05
6.038810e-05
7.223934e-05
8.390332e-05
9.452168e-05
1.032612e-04
1.094465e-04
1.126413e-04
1.126778e-04
1.096491e-04
1.038836e-04
9.591162e-05
8.642671e-05
7.623697e-05
6.619832e-05
5.712685e-05
4.969518e-05
4.432998e-05
4.113595e-05
3.987295e-05
4.000190e-05
4.079601e-05
4.149276e-05
4.144904e-05
4.026097e-05
3.782192e-05
3.430967e-05
3.011228e-05
2.571531e-05
2.158032e-05
1.804390e-05
1.525957e-05
1.319221e-05
1.166070e-05
1.041089e-05
9.195207e-06
7.835957e-06
6.257626e-06
4.484933e-06
2.613757e-06
7.687987e-07
-9.368634e-07
-2.428684e-06
-3.678875e-06
-4.697679e-06
-5.514318e-06
-6.156006e-06
-6.632061e-06
-6.926865e-06
-7.001815e-06
-6.803602e-06
-6.275032e-06
-5.364953e-06
-4.035237e-06
-2.264359e-06
-4.837844e-08
2.599398e-06
0.000000e+00
0.000000e+00
-0.000000e+00
-0.000000e+00
-0.000000e+00
-0.000000e+00
-5.927357e-19
9.878928e-19
-5.152827e-18
-5.836460e-18
-1.732758e-18
-1.580628e-18
-6.381842e-19
-2.567569e-18
8.228359e-19
2.245619e-18
-1.634516e-18
5.327126e-18
-2.904785e-18
1.447926e-18
1.485018e-18
2.672051e-18
2.063970e-19
-2.238017e-20
-1.643661e-18
3.185353e-19
1.535274e-19
3.120555e-18
1.239842e-18
4.251063e-18
3.767040e-18
3.051649e-18
-1.585941e-19
-1.081465e-18
3.682130e-18
-2.965321e-18
-5.005953e-18
-8.578303e-19
-1.444688e-18
-1.717329e-18
-2.301673e-18
-2.778119e-18
3.552855e-20
-4.733485e-18
9.622265e-19
-5.625854e-18
-4.013258e-18
-7.182213e-18
-1.038337e-17
-9.167164e-18
1.010543e-17
1.206408e-17
1.480905e-17
7.980726e-17
3.268136e-16
7.682288e-16
-8.774080e-16
-2.312101e-14
-1.656111e-13
-8.484128e-13
-3.458216e-12
-1.067117e-11
-1.552314e-11
7.875957e-11
6.743003e-10
2.423029e-09
5.797211e-09
1.145913e-08
2.102325e-08
3.797020e-08
6.846389e-08
1.220933e-07
2.124524e-07
3.574766e-07
5.834574e-07
9.533001e-07
1.681062e-06
3.386220e-06
7.099066e-06
1.342815e-05
2.192607e-05
3.164803e-05
4.183996e-05
5.220715e-05
6.278792e-05
7.357723e-05
8.426092e-05
9.420062e-05
1.025997e-04
1.087116e-04
1.120008e-04
1.122206e-04
1.094234e-04
1.039282e-04
9.627075e-05
8.714937e-05
7.736365e-05
6.774217e-05
5.905520e-05
5.191818e-05
4.670189e-05
4.347243e-05
4.198242e-05
4.172410e-05
4.203709e-05
4.224658e-05
4.179804e-05
4.035635e-05
3.784810e-05
3.444204e-05
3.047817e-05
2.636752e-05
2.248930e-05
1.911041e-05
1.634419e-05
1.415364e-05
1.239159e-05
1.086119e-05
9.377041e-06
7.810465e-06
6.109707e-06
4.294819e-06
2.434294e-06
6.145387e-07
-1.086961e-06
-2.617661e-06
-3.953190e-06
-5.090358e-06
-6.034949e-06
-6.789526e-06
-7.344966e-06
-7.677314e-06
-7.749582e-06
-7.516965e-06
-6.933633e-06
-5.959635e-06
-4.567099e-06
-2.745477e-06
-5.058625e-07
2.115715e-06
0.000000e+00
0.000000e+00
-0.000000e+00
-0.000000e+00
-0.000000e+00
-0.000000e+00
2.766100e-18
-5.152827e-18
-2.477624e-18
2.720651e-18
-4.741885e-18
-3.860674e-18
-5.030361e-18
1.337601e-18
1.757659e-18
9.851687e-19
7.669006e-19
-5.777967e-18
-1.634434e-20
-3.361351e-18
-2.020985e-18
-3.930343e-18
-3.967699e-18
-2.690017e-18
-2.578344e-18
1.346780e-18
3.157404e-18
-1.524043e-18
-1.111374e-18
-2.197058e-18
8.782061e-19
-2.400677e-19
4.880814e-19
-2.277676e-19
-2.776711e-18
-7.730679e-19
-3.350451e-18
4.655372e-19
1.729767e-18
2.437666e-18
1.403669e-18
8.604423e-19
-3.077810e-18
-4.925462e-19
-4.014362e-18
-2.890997e-18
-5.441682e-18
5.021111e-19
-8.065830e-18
-9.249988e-18
7.189454e-18
4.852327e-18
2.392946e-17
1.078567e-16
1.912248e-16
-9.631292e-16
-1.256777e-14
-8.206892e-14
-4.058864e-13
-1.607437e-12
-4.615308e-12
-3.512986e-12
5.865399e-11
3.855458e-10
1.266746e-09
2.958217e-09
5.922598e-09
1.122390e-08
2.110708e-08
3.970499e-08
7.394655e-08
1.346411e-07
2.373560e-07
4.023103e-07
6.524896e-07
1.011781e-06
1.520731e-06
2.341975e-06
4.130719e-06
8.543734e-06
1.735588e-05
3.015103e-05
4.444681e-05
5.790124e-05
6.945449e-05
7.928593e-05
8.802200e-05
9.596775e-05
1.028776e-04
1.081492e-04
1.111422e-04
1.114242e-04
1.088861e-04
1.037472e-04
9.650047e-05
8.783078e-05
7.852808e-05
6.939678e-05
6.116218e-05
5.437911e-05
4.935600e-05
4.611353e-05
4.439300e-05
4.371865e-05
4.350276e-05
4.316907e-05
4.226468e-05
4.053535e-05
3.794911e-05
3.466787e-05
3.097940e-05
2.721084e-05
2.364675e-05
2.047197e-05
1.775021e-05
1.543779e-05
1.342193e-05
1.156802e-05
9.760876e-06
7.929928e-06
6.055096e-06
4.156754e-06
2.277547e-06
4.644228e-07
-1.243312e-06
-2.818017e-06
-4.241324e-06
-5.498553e-06
-6.573143e-06
-7.443130e-06
-8.080270e-06
-8.451236e-06
-8.519971e-06
-8.250470e-06
-7.609905e-06
-6.572488e-06
-5.124587e-06
-3.271223e-06
-1.043343e-06
1.495523e-06
0.000000e+00
0.000000e+00
-0.000000e+00
-0.000000e+00
-0.000000e+00
1.975786e-19
8.969958e-19
-3.556414e-18
4.712221e-19
4.513690e-18
1.139070e-18
1.276368e-18
8.812112e-19
9.376813e-19
-7.112577e-19
2.466051e-18
-3.907769e-18
-9.326510e-19
-2.532925e-18
2.070610e-19
-4.688545e-18
-3.854506e-18
-4.145058e-18
3.623540e-18
3.128144e-18
-2.394108e-18
-4.161122e-18
-3.208501e-18
-4.006973e-18
-4.530236e-18
-1.581703e-18
-5.917167e-18
8.608276e-20
-6.779225e-19
3.489178e-18
2.026584e-18
1.685280e-18
5.481640e-18
3.329853e-18
2.837536e-18
2.176764e-18
4.565338e-19
2.482130e-18
6.391887e-19
-2.282356e-18
-5.958761e-19
-3.408875e-18
4.447753e-18
-6.933936e-18
5.050394e-18
5.719619e-18
1.758365e-17
5.270387e-17
1.622250e-17
-6.681051e-16
-6.335144e-15
-3.878079e-14
-1.862969e-13
-7.138616e-13
-1.847665e-12
5.667089e-13
3.800558e-11
2.075894e-10
6.357051e-10
1.465821e-09
2.989926e-09
5.857347e-09
1.140763e-08
2.214252e-08
4.244779e-08
7.964353e-08
1.453291e-07
2.568445e-07
4.382710e-07
7.195923e-07
1.131806e-06
1.697032e-06
2.424116e-06
3.377406e-06
5.037465e-06
9.298807e-06
1.974514e-05
3.773993e-05
5.913071e-05
7.814616e-05
9.170758e-05
9.995341e-05
1.047822e-04
1.079461e-04
1.101591e-04
1.112426e-04
1.106659e-04
1.080030e-04
1.031604e-04
9.641324e-05
8.832620e-05
7.963027e-05
7.109165e-05
6.339204e-05
5.702942e-05
5.225096e-05
4.902990e-05
4.709309e-05
4.599531e-05
4.522376e-05
4.430707e-05
4.290383e-05
4.085173e-05
3.816957e-05
3.501772e-05
3.163201e-05
2.825065e-05
2.505458e-05
2.213615e-05
1.949979e-05
1.708789e-05
1.481834e-05
1.261935e-05
1.045066e-05
8.307108e-06
6.207956e-06
4.180428e-06
2.245957e-06
4.143980e-07
-1.313299e-06
-2.937018e-06
-4.448570e-06
-5.825992e-06
-7.033151e-06
-8.024249e-06
-8.750889e-06
-9.168647e-06
-9.240962e-06
-8.939975e-06
-8.245807e-06
-7.146724e-06
-5.642368e-06
-3.750875e-06
-1.518921e-06
9.677881e-07
0.000000e+00
0.000000e+00
-0.000000e+00
-0.000000e+00
-0.000000e+00
-1.383050e-18
3.951571e-18
3.161257e-18
-1.975786e-19
-4.453410e-18
-2.477624e-18
8.051462e-19
3.612884e-18
9.521038e-19
-4.317749e-18
1.064902e-18
-1.604301e-18
-2.797176e-18
1.731729e-18
-1.517235e-18
-3.029095e-18
-1.894020e-18
2.821182e-18
4.383741e-18
-6.564316e-18
-2.459873e-18
-4.505859e-18
5.940103e-18
-1.195019e-18
-2.662821e-18
-1.307234e-18
2.078206e-18
-4.346365e-18
1.314360e-18
3.165982e-18
2.561921e-19
5.565355e-18
3.695784e-18
1.472747e-18
4.937107e-19
1.980467e-18
-7.587092e-22
-5.439082e-18
1.426375e-18
-1.158788e-18
4.960005e-18
2.028652e-18
1.870941e-18
1.060642e-17
2.431744e-17
1.041249e-17
8.693072e-18
-3.951453e-19
-3.704122e-16
-3.009040e-15
-1.751924e-14
-8.203433e-14
-3.019251e-13
-6.645895e-13
1.421604e-12
2.231396e-11
1.057882e-10
3.072091e-10
7.066536e-10
1.475762e-09
2.990932e-09
6.023658e-09
1.203751e-08
2.366792e-08
4.545981e-08
8.493859e-08
1.540948e-07
2.712871e-07
4.632560e-07
7.661914e-07
1.223520e-06
1.876646e-06
2.744981e-06
3.799571e-06
4.978282e-06
6.455992e-06
9.709321e-06
1.948965e-05
4.133919e-05
7.224268e-05
1.011153e-04
1.196949e-04
1.268208e-04
1.260964e-04
1.219983e-04
1.172780e-04
1.127069e-04
1.079400e-04
1.024143e-04
9.584664e-05
8.836686e-05
8.043360e-05
7.266115e-05
6.564312e-05
5.981225e-05
5.535922e-05
5.221547e-05
5.009578e-05
4.858583e-05
4.724805e-05
4.571899e-05
4.377569e-05
4.135746e-05
3.854434e-05
3.550438e-05
3.242664e-05
2.946036e-05
2.667846e-05
2.407335e-05
2.158077e-05
1.911944e-05
1.663033e-05
1.410076e-05
1.156561e-05
9.088385e-06
6.733397e-06
4.541961e-06
2.521274e-06
6.483920e-07
-1.113989e-06
-2.796887e-06
-4.407614e-06
-5.921861e-06
-7.287378e-06
-8.436494e-06
-9.301517e-06
-9.826787e-06
-9.973808e-06
-9.719617e-06
-9.051761e-06
-7.964460e-06
-6.459610e-06
-4.554034e-06
-2.291789e-06
2.415564e-07
0.000000e+00
0.000000e+00
-0.000000e+00
3.951571e-19
1.975786e-19
-1.489731e-18
2.173364e-18
-3.739160e-18
1.483197e-20
-2.523073e-18
-7.903142e-19
-6.410419e-19
3.724872e-18
3.879993e-18
-1.334476e-18
-2.741734e-18
-4.527353e-18
8.663946e-19
-5.228320e-19
4.711190e-18
4.915219e-18
4.684933e-18
2.252990e-18
9.950161e-19
-4.373243e-19
2.904273e-18
1.948836e-18
-3.537677e-18
2.831140e-18
-1.573406e-18
2.615466e-19
4.887267e-18
4.381779e-18
1.607290e-18
2.633944e-18
3.977713e-18
-4.516842e-19
2.078374e-18
1.581661e-18
-1.656027e-18
2.111265e-18
-9.706509e-19
1.326435e-19
9.695821e-19
6.065536e-19
-9.959076e-19
1.244920e-18
4.401950e-18
3.621597e-18
1.178702e-17
1.482577e-18
-1.369974e-17
-1.775638e-16
-1.343466e-15
-7.577105e-15
-3.463925e-14
-1.209798e-13
-1.999754e-13
1.207906e-12
1.209883e-11
5.124723e-11
1.433439e-10
3.318057e-10
7.120197e-10
1.492691e-09
3.103673e-09
6.377866e-09
1.285769e-08
2.528198e-08
4.832316e-08
8.967088e-08
1.615700e-07
2.828779e-07
4.815354e-07
7.968967e-07
1.280373e-06
1.991118e-06
2.981434e-06
4.265604e-06
5.772152e-06
7.307215e-06
8.695982e-06
1.062386e-05
1.721943e-05
3.806259e-05
7.740394e-05
1.215053e-04
1.518182e-04
1.616116e-04
1.553603e-04
1.416090e-04
1.270430e-04
1.145737e-04
1.044408e-04
9.584110e-05
8.801089e-05
8.061624e-05
7.372647e-05
6.761155e-05
6.252658e-05
5.856827e-05
5.562238e-05
5.339851e-05
5.151955e-05
4.962664e-05
4.746801e-05
4.494487e-05
4.210693e-05
3.910782e-05
3.613618e-05
3.334433e-05
3.079851e-05
2.846518e-05
2.623278e-05
2.395931e-05
2.152874e-05
1.889476e-05
1.609512e-05
1.323351e-05
1.044010e-05
7.827660e-06
5.458550e-06
3.332280e-06
1.396334e-06
-4.251908e-07
-2.197014e-06
-3.945736e-06
-5.649710e-06
-7.246828e-06
-8.653971e-06
-9.788539e-06
-1.058381e-05
-1.099429e-05
-1.099229e-05
-1.056007e-05
-9.683330e-06
-8.350028e-06
-6.556293e-06
-4.318458e-06
-1.688566e-06
0.000000e+00
0.000000e+00
-0.000000e+00
-1.185471e-18
-5.927357e-19
1.778207e-18
-2.884755e-19
1.185471e-18
-1.702142e-18
-2.599138e-18
-1.688672e-19
2.331753e-18
3.181938e-18
-2.379925e-18
-7.058013e-19
1.082809e-18
4.843226e-18
-2.623957e-18
-5.200868e-18
-1.486190e-18
9.352707e-19
4.187716e-18
2.114603e-18
2.627345e-18
3.836054e-18
7.213007e-19
-2.828760e-18
4.535589e-18
4.949225e-18
2.625161e-18
3.441297e-18
-6.601242e-19
3.964678e-18
1.247049e-18
-2.941345e-18
-1.432928e-18
-2.712656e-18
-1.673072e-18
3.756370e-18
-5.536442e-18
-2.445399e-18
-1.235286e-18
9.757573e-19
-1.663105e-18
-2.832944e-18
-5.860404e-20
-4.986285e-18
2.642090e-18
-4.540659e-18
-7.077225e-18
-2.950653e-17
-7.988311e-17
-5.547312e-16
-3.121528e-15
-1.399259e-14
-4.551269e-14
-3.852697e-14
7.911846e-13
6.121994e-12
2.369199e-11
6.472306e-11
1.518375e-10
3.355843e-10
7.271620e-10
1.558408e-09
3.289316e-09
6.796090e-09
1.368208e-08
2.677010e-08
5.085557e-08
9.381462e-08
1.681550e-07
2.930591e-07
4.968763e-07
8.198216e-07
1.316131e-06
2.053766e-06
3.107576e-06
4.538953e-06
6.353620e-06
8.433032e-06
1.046040e-05
1.193444e-05
1.272339e-05
1.514887e-05
2.888950e-05
6.846396e-05
1.289141e-04
1.810126e-04
2.031696e-04
1.959472e-04
1.720130e-04
1.444574e-04
1.207693e-04
1.029741e-04
9.025087e-05
8.105579e-05
7.415637e-05
6.882829e-05
6.470040e-05