# vtk DataFile Version 3.0
Resultado Projeto 3
ASCII
DATASET STRUCTURED_GRID
DIMENSIONS 70 30 1 
POINTS 2100 double
0.000000e+00 0.000000e+00 0.000000e+00
5.072464e-02 0.000000e+00 0.000000e+00
1.014493e-01 0.000000e+00 0.000000e+00
1.521739e-01 0.000000e+00 0.000000e+00
2.028986e-01 0.000000e+00 0.000000e+00
2.536232e-01 0.000000e+00 0.000000e+00
3.043478e-01 0.000000e+00 0.000000e+00
3.550725e-01 0.000000e+00 0.000000e+00
4.057971e-01 0.000000e+00 0.000000e+00
4.565217e-01 0.000000e+00 0.000000e+00
5.072464e-01 0.000000e+00 0.000000e+00
5.579710e-01 0.000000e+00 0.000000e+00
6.086957e-01 0.000000e+00 0.000000e+00
6.594203e-01 0.000000e+00 0.000000e+00
7.101449e-01 0.000000e+00 0.000000e+00
7.608696e-01 0.000000e+00 0.000000e+00
8.115942e-01 0.000000e+00 0.000000e+00
8.623188e-01 0.000000e+00 0.000000e+00
9.130435e-01 0.000000e+00 0.000000e+00
9.637681e-01 0.000000e+00 0.000000e+00
1.014493e+00 0.000000e+00 0.000000e+00
1.065217e+00 0.000000e+00 0.000000e+00
1.115942e+00 0.000000e+00 0.000000e+00
1.166667e+00 0.000000e+00 0.000000e+00
1.217391e+00 0.000000e+00 0.000000e+00
1.268116e+00 0.000000e+00 0.000000e+00
1.318841e+00 0.000000e+00 0.000000e+00
1.369565e+00 0.000000e+00 0.000000e+00
1.420290e+00 0.000000e+00 0.000000e+00
1.471014e+00 0.000000e+00 0.000000e+00
1.521739e+00 0.000000e+00 0.000000e+00
1.572464e+00 0.000000e+00 0.000000e+00
1.623188e+00 0.000000e+00 0.000000e+00
1.673913e+00 0.000000e+00 0.000000e+00
1.724638e+00 0.000000e+00 0.000000e+00
1.775362e+00 0.000000e+00 0.000000e+00
1.826087e+00 0.000000e+00 0.000000e+00
1.876812e+00 0.000000e+00 0.000000e+00
1.927536e+00 0.000000e+00 0.000000e+00
1.978261e+00 0.000000e+00 0.000000e+00
2.028986e+00 0.000000e+00 0.000000e+00
2.079710e+00 0.000000e+00 0.000000e+00
2.130435e+00 0.000000e+00 0.000000e+00
2.181159e+00 0.000000e+00 0.000000e+00
2.231884e+00 0.000000e+00 0.000000e+00
2.282609e+00 0.000000e+00 0.000000e+00
2.333333e+00 0.000000e+00 0.000000e+00
2.384058e+00 0.000000e+00 0.000000e+00
2.434783e+00 0.000000e+00 0.000000e+00
2.485507e+00 0.000000e+00 0.000000e+00
2.536232e+00 0.000000e+00 0.000000e+00
2.586957e+00 0.000000e+00 0.000000e+00
2.637681e+00 0.000000e+00 0.000000e+00
2.688406e+00 0.000000e+00 0.000000e+00
2.739130e+00 0.000000e+00 0.000000e+00
2.789855e+00 0.000000e+00 0.000000e+00
2.840580e+00 0.000000e+00 0.000000e+00
2.891304e+00 0.000000e+00 0.000000e+00
2.942029e+00 0.000000e+00 0.000000e+00
2.992754e+00 0.000000e+00 0.000000e+00
3.043478e+00 0.000000e+00 0.000000e+00
3.094203e+00 0.000000e+00 0.000000e+00
3.144928e+00 0.000000e+00 0.000000e+00
3.195652e+00 0.000000e+00 0.000000e+00
3.246377e+00 0.000000e+00 0.000000e+00
3.297101e+00 0.000000e+00 0.000000e+00
3.347826e+00 0.000000e+00 0.000000e+00
3.398551e+00 0.000000e+00 0.000000e+00
3.449275e+00 0.000000e+00 0.000000e+00
3.500000e+00 0.000000e+00 0.000000e+00
0.000000e+00 3.448276e-02 0.000000e+00
5.072464e-02 3.448276e-02 0.000000e+00
1.014493e-01 3.448276e-02 0.000000e+00
1.521739e-01 3.448276e-02 0.000000e+00
2.028986e-01 3.448276e-02 0.000000e+00
2.536232e-01 3.448276e-02 0.000000e+00
3.043478e-01 3.448276e-02 0.000000e+00
3.550725e-01 3.448276e-02 0.000000e+00
4.057971e-01 3.448276e-02 0.000000e+00
4.565217e-01 3.448276e-02 0.000000e+00
5.072464e-01 3.448276e-02 0.000000e+00
5.579710e-01 3.448276e-02 0.000000e+00
6.086957e-01 3.448276e-02 0.000000e+00
6.594203e-01 3.448276e-02 0.000000e+00
7.101449e-01 3.448276e-02 0.000000e+00
7.608696e-01 3.448276e-02 0.000000e+00
8.115942e-01 3.448276e-02 0.000000e+00
8.623188e-01 3.448276e-02 0.000000e+00
9.130435e-01 3.448276e-02 0.000000e+00
9.637681e-01 3.448276e-02 0.000000e+00
1.014493e+00 3.448276e-02 0.000000e+00
1.065217e+00 3.448276e-02 0.000000e+00
1.115942e+00 3.448276e-02 0.000000e+00
1.166667e+00 3.448276e-02 0.000000e+00
1.217391e+00 3.448276e-02 0.000000e+00
1.268116e+00 3.448276e-02 0.000000e+00
1.318841e+00 3.448276e-02 0.000000e+00
1.369565e+00 3.448276e-02 0.000000e+00
1.420290e+00 3.448276e-02 0.000000e+00
1.471014e+00 3.448276e-02 0.000000e+00
1.521739e+00 3.448276e-02 0.000000e+00
1.572464e+00 3.448276e-02 0.000000e+00
1.623188e+00 3.448276e-02 0.000000e+00
1.673913e+00 3.448276e-02 0.000000e+00
1.724638e+00 3.448276e-02 0.000000e+00
1.775362e+00 3.448276e-02 0.000000e+00
1.826087e+00 3.448276e-02 0.000000e+00
1.876812e+00 3.448276e-02 0.000000e+00
1.927536e+00 3.448276e-02 0.000000e+00
1.978261e+00 3.448276e-02 0.000000e+00
2.028986e+00 3.448276e-02 0.000000e+00
2.079710e+00 3.448276e-02 0.000000e+00
2.130435e+00 3.448276e-02 0.000000e+00
2.181159e+00 3.448276e-02 0.000000e+00
2.231884e+00 3.448276e-02 0.000000e+00
2.282609e+00 3.448276e-02 0.000000e+00
2.333333e+00 3.448276e-02 0.000000e+00
2.384058e+00 3.448276e-02 0.000000e+00
2.434783e+00 3.448276e-02 0.000000e+00
2.485507e+00 3.448276e-02 0.000000e+00
2.536232e+00 3.448276e-02 0.000000e+00
2.586957e+00 3.448276e-02 0.000000e+00
2.637681e+00 3.448276e-02 0.000000e+00
2.688406e+00 3.448276e-02 0.000000e+00
2.739130e+00 3.448276e-02 0.000000e+00
2.789855e+00 3.448276e-02 0.000000e+00
2.840580e+00 3.448276e-02 0.000000e+00
2.891304e+00 3.448276e-02 0.000000e+00
2.942029e+00 3.448276e-02 0.000000e+00
2.992754e+00 3.448276e-02 0.000000e+00
3.043478e+00 3.448276e-02 0.000000e+00
3.094203e+00 3.448276e-02 0.000000e+00
3.144928e+00 3.448276e-02 0.000000e+00
3.195652e+00 3.448276e-02 0.000000e+00
3.246377e+00 3.448276e-02 0.000000e+00
3.297101e+00 3.448276e-02 0.000000e+00
3.347826e+00 3.448276e-02 0.000000e+00
3.398551e+00 3.448276e-02 0.000000e+00
3.449275e+00 3.448276e-02 0.000000e+00
3.500000e+00 3.448276e-02 0.000000e+00
0.000000e+00 6.896552e-02 0.000000e+00
5.072464e-02 6.896552e-02 0.000000e+00
1.014493e-01 6.896552e-02 0.000000e+00
1.521739e-01 6.896552e-02 0.000000e+00
2.028986e-01 6.896552e-02 0.000000e+00
2.536232e-01 6.896552e-02 0.000000e+00
3.043478e-01 6.896552e-02 0.000000e+00
3.550725e-01 6.896552e-02 0.000000e+00
4.057971e-01 6.896552e-02 0.000000e+00
4.565217e-01 6.896552e-02 0.000000e+00
5.072464e-01 6.896552e-02 0.000000e+00
5.579710e-01 6.896552e-02 0.000000e+00
6.086957e-01 6.896552e-02 0.000000e+00
6.594203e-01 6.896552e-02 0.000000e+00
7.101449e-01 6.896552e-02 0.000000e+00
7.608696e-01 6.896552e-02 0.000000e+00
8.115942e-01 6.896552e-02 0.000000e+00
8.623188e-01 6.896552e-02 0.000000e+00
9.130435e-01 6.896552e-02 0.000000e+00
9.637681e-01 6.896552e-02 0.000000e+00
1.014493e+00 6.896552e-02 0.000000e+00
1.065217e+00 6.896552e-02 0.000000e+00
1.115942e+00 6.896552e-02 0.000000e+00
1.166667e+00 6.896552e-02 0.000000e+00
1.217391e+00 6.896552e-02 0.000000e+00
1.268116e+00 6.896552e-02 0.000000e+00
1.318841e+00 6.896552e-02 0.000000e+00
1.369565e+00 6.896552e-02 0.000000e+00
1.420290e+00 6.896552e-02 0.000000e+00
1.471014e+00 6.896552e-02 0.000000e+00
1.521739e+00 6.896552e-02 0.000000e+00
1.572464e+00 6.896552e-02 0.000000e+00
1.623188e+00 6.896552e-02 0.000000e+00
1.673913e+00 6.896552e-02 0.000000e+00
1.724638e+00 6.896552e-02 0.000000e+00
1.775362e+00 6.896552e-02 0.000000e+00
1.826087e+00 6.896552e-02 0.000000e+00
1.876812e+00 6.896552e-02 0.000000e+00
1.927536e+00 6.896552e-02 0.000000e+00
1.978261e+00 6.896552e-02 0.000000e+00
2.028986e+00 6.896552e-02 0.000000e+00
2.079710e+00 6.896552e-02 0.000000e+00
2.130435e+00 6.896552e-02 0.000000e+00
2.181159e+00 6.896552e-02 0.000000e+00
2.231884e+00 6.896552e-02 0.000000e+00
2.282609e+00 6.896552e-02 0.000000e+00
2.333333e+00 6.896552e-02 0.000000e+00
2.384058e+00 6.896552e-02 0.000000e+00
2.434783e+00 6.896552e-02 0.000000e+00
2.485507e+00 6.896552e-02 0.000000e+00
2.536232e+00 6.896552e-02 0.000000e+00
2.586957e+00 6.896552e-02 0.000000e+00
2.637681e+00 6.896552e-02 0.000000e+00
2.688406e+00 6.896552e-02 0.000000e+00
2.739130e+00 6.896552e-02 0.000000e+00
2.789855e+00 6.896552e-02 0.000000e+00
2.840580e+00 6.896552e-02 0.000000e+00
2.891304e+00 6.896552e-02 0.000000e+00
2.942029e+00 6.896552e-02 0.000000e+00
2.992754e+00 6.896552e-02 0.000000e+00
3.043478e+00 6.896552e-02 0.000000e+00
3.094203e+00 6.896552e-02 0.000000e+00
3.144928e+00 6.896552e-02 0.000000e+00
3.195652e+00 6.896552e-02 0.000000e+00
3.246377e+00 6.896552e-02 0.000000e+00
3.297101e+00 6.896552e-02 0.000000e+00
3.347826e+00 6.896552e-02 0.000000e+00
3.398551e+00 6.896552e-02 0.000000e+00
3.449275e+00 6.896552e-02 0.000000e+00
3.500000e+00 6.896552e-02 0.000000e+00
0.000000e+00 1.034483e-01 0.000000e+00
5.072464e-02 1.034483e-01 0.000000e+00
1.014493e-01 1.034483e-01 0.000000e+00
1.521739e-01 1.034483e-01 0.000000e+00
2.028986e-01 1.034483e-01 0.000000e+00
2.536232e-01 1.034483e-01 0.000000e+00
3.043478e-01 1.034483e-01 0.000000e+00
3.550725e-01 1.034483e-01 0.000000e+00
4.057971e-01 1.034483e-01 0.000000e+00
4.565217e-01 1.034483e-01 0.000000e+00
5.072464e-01 1.034483e-01 0.000000e+00
5.579710e-01 1.034483e-01 0.000000e+00
6.086957e-01 1.034483e-01 0.000000e+00
6.594203e-01 1.034483e-01 0.000000e+00
7.101449e-01 1.034483e-01 0.000000e+00
7.608696e-01 1.034483e-01 0.000000e+00
8.115942e-01 1.034483e-01 0.000000e+00
8.623188e-01 1.034483e-01 0.000000e+00
9.130435e-01 1.034483e-01 0.000000e+00
9.637681e-01 1.034483e-01 0.000000e+00
1.014493e+00 1.034483e-01 0.000000e+00
1.065217e+00 1.034483e-01 0.000000e+00
1.115942e+00 1.034483e-01 0.000000e+00
1.166667e+00 1.034483e-01 0.000000e+00
1.217391e+00 1.034483e-01 0.000000e+00
1.268116e+00 1.034483e-01 0.000000e+00
1.318841e+00 1.034483e-01 0.000000e+00
1.369565e+00 1.034483e-01 0.000000e+00
1.420290e+00 1.034483e-01 0.000000e+00
1.471014e+00 1.034483e-01 0.000000e+00
1.521739e+00 1.034483e-01 0.000000e+00
1.572464e+00 1.034483e-01 0.000000e+00
1.623188e+00 1.034483e-01 0.000000e+00
1.673913e+00 1.034483e-01 0.000000e+00
1.724638e+00 1.034483e-01 0.000000e+00
1.775362e+00 1.034483e-01 0.000000e+00
1.826087e+00 1.034483e-01 0.000000e+00
1.876812e+00 1.034483e-01 0.000000e+00
1.927536e+00 1.034483e-01 0.000000e+00
1.978261e+00 1.034483e-01 0.000000e+00
2.028986e+00 1.034483e-01 0.000000e+00
2.079710e+00 1.034483e-01 0.000000e+00
2.130435e+00 1.034483e-01 0.000000e+00
[...]
POINT_DATA 2100
SCALARS RES_Cont double
LOOKUP_TABLE default
0.000000e+00
0.000000e+00
0.000000e+00
0.000000e+00
0.000000e+00
0.000000e+00
0.000000e+00
0.000000e+00
0.000000e+00
0.000000e+00
0.000000e+00
0.000000e+00
0.000000e+00
0.000000e+00
0.000000e+00
0.000000e+00
0.000000e+00
0.000000e+00
0.000000e+00
0.000000e+00
0.000000e+00
0.000000e+00
0.000000e+00
0.000000e+00
0.000000e+00
0.000000e+00
0.000000e+00
0.000000e+00
0.000000e+00
0.000000e+00
0.000000e+00
0.000000e+00
0.000000e+00
0.000000e+00
0.000000e+00
0.000000e+00
0.000000e+00
0.000000e+00
0.000000e+00
0.000000e+00
0.000000e+00
0.000000e+00
0.000000e+00
0.000000e+00
0.000000e+00
0.000000e+00
0.000000e+00
0.000000e+00
0.000000e+00
0.000000e+00
0.000000e+00
0.000000e+00
0.000000e+00
0.000000e+00
0.000000e+00
0.000000e+00
0.000000e+00
0.000000e+00
0.000000e+00
0.000000e+00
0.000000e+00
0.000000e+00
0.000000e+00
0.000000e+00
0.000000e+00
0.000000e+00
0.000000e+00
0.000000e+00
0.000000e+00
0.000000e+00
0.000000e+00
4.698404e-18
6.786609e-18
5.173018e-18
2.851350e-18
5.869046e-18
1.498559e-18
3.090178e-18
5.831173e-18
5.140845e-18
5.619280e-18
2.043262e-18
2.533669e-18
3.753117e-18
2.517636e-18
2.238900e-18
4.207800e-18
4.040299e-18
3.061350e-18
4.319099e-18
5.941690e-18
-8.200497e-19
-7.899131e-19
3.383980e-18
6.366956e-18
4.384042e-18
2.373822e-17
1.470857e-16
6.230329e-16
2.629255e-15
1.039930e-14
3.890823e-14
1.381919e-13
4.676505e-13
1.511487e-12
4.673986e-12
1.384354e-11
3.929030e-11
1.068630e-10
2.784889e-10
6.952756e-10
1.662883e-09
3.810678e-09
8.370714e-09
1.763698e-08
3.567390e-08
6.933706e-08
1.296386e-07
2.334246e-07
4.052315e-07
6.790580e-07
1.099657e-06
1.722852e-06
2.614373e-06
3.846803e-06
5.494511e-06
7.626767e-06
1.029973e-05
1.354830e-05
1.737910e-05
2.176572e-05
2.664719e-05
3.192997e-05
3.749333e-05
4.319733e-05
4.889230e-05
5.442871e-05
5.966611e-05
6.448063e-05
0.000000e+00
0.000000e+00
2.096617e-18
2.081499e-18
2.893700e-18
5.367266e-18
4.522049e-18
6.168566e-18
3.333713e-18
-2.599237e-19
-1.027782e-18
2.528172e-18
-5.967151e-19
1.848333e-18
7.505616e-19
-9.863137e-19
1.887900e-18
-1.922724e-19
3.329467e-18
3.489066e-18
4.640742e-18
2.206855e-18
5.650154e-18
6.057501e-18
4.540652e-18
1.785306e-18
4.387223e-18
2.766704e-17
1.528102e-16
6.679285e-16
2.709358e-15
1.049656e-14
3.848266e-14
1.347383e-13
4.509726e-13
1.447275e-12
4.458779e-12
1.319301e-11
3.748419e-11
1.022030e-10
2.672262e-10
6.696275e-10
1.607594e-09
3.697425e-09
8.149563e-09
1.722415e-08
3.493539e-08
6.806830e-08
1.275412e-07
2.300826e-07
4.000909e-07
6.714142e-07
1.088656e-06
1.707512e-06
2.593624e-06
3.819560e-06
5.459755e-06
7.583655e-06
1.024769e-05
1.348715e-05
1.730909e-05
2.168758e-05
2.656214e-05
3.183969e-05
3.739984e-05
4.310294e-05
4.879947e-05
5.433991e-05
5.958375e-05
6.440694e-05
0.000000e+00
0.000000e+00
5.352912e-18
1.331129e-18
5.073073e-18
6.588508e-18
4.948418e-18
1.821834e-18
4.165313e-18
2.962163e-18
2.612020e-18
-6.153960e-18
5.636150e-18
-5.881793e-19
-1.160237e-18
1.574827e-19
-2.276902e-18
-5.970743e-19
5.366387e-18
2.439270e-18
2.490261e-18
1.964341e-18
1.519386e-18
6.202541e-18
9.331609e-19
4.468013e-18
4.556261e-18
3.212092e-17
1.704867e-16
7.175773e-16
2.846857e-15
1.065095e-14
3.794217e-14
1.295845e-13
4.253495e-13
1.345939e-12
4.110556e-12
1.211490e-11
3.442199e-11
9.413846e-11
2.473929e-10
6.238292e-10
1.507845e-09
3.491683e-09
7.746211e-09
1.647002e-08
3.358667e-08
6.575480e-08
1.237260e-07
2.240218e-07
3.907990e-07
6.576457e-07
1.068911e-06
1.680074e-06
2.556644e-06
3.771172e-06
5.398236e-06
7.507597e-06
1.015619e-05
1.337996e-05
1.718673e-05
2.155142e-05
2.641436e-05
3.168321e-05
3.723820e-05
4.294010e-05
4.863960e-05
5.418722e-05
5.944229e-05
6.428044e-05
0.000000e+00
0.000000e+00
1.538739e-18
-1.590033e-19
-8.444514e-19
3.662899e-19
-1.679672e-18
4.424864e-18
4.998744e-18
3.566265e-18
4.687370e-18
5.769199e-18
4.325171e-18
4.575802e-19
3.770726e-18
6.565056e-19
6.656353e-18
1.578792e-18
5.055660e-18
-9.211957e-19
-2.328875e-18
1.985365e-18
4.378408e-18
6.938235e-18
-2.437308e-18
4.800932e-18
4.647667e-18
4.512262e-17
1.788938e-16
7.952607e-16
2.992591e-15
1.081402e-14
3.731147e-14
1.236557e-13
3.956611e-13
1.226904e-12
3.693446e-12
1.079376e-11
3.057598e-11
8.375379e-11
2.212343e-10
5.620931e-10
1.370825e-09
3.204666e-09
7.176753e-09
1.539606e-08
3.165484e-08
6.242980e-08
1.182344e-07
2.152962e-07
3.774330e-07
6.378698e-07
1.040606e-06
1.640831e-06
2.503881e-06
3.702309e-06
5.310914e-06
7.399929e-06
1.002701e-05
1.322903e-05
1.701492e-05
2.136074e-05
2.620797e-05
3.146525e-05
3.701363e-05
4.271442e-05
4.841861e-05
5.397668e-05
5.924771e-05
6.410685e-05
0.000000e+00
0.000000e+00
6.838393e-18
3.966224e-18
4.895723e-18
-1.597105e-19
2.551800e-18
3.014407e-18
4.678662e-18
5.828741e-18
3.375695e-20
1.932293e-18
4.402190e-18
5.353767e-18
-8.361261e-19
3.455934e-18
-4.387217e-18
2.596153e-18
2.075235e-18
1.964388e-18
-2.532439e-18
1.581189e-18
6.167948e-18
-2.681461e-18
4.883413e-18
1.305007e-18
1.488308e-17
4.822919e-17
2.269712e-16
8.504302e-16
3.135748e-15
1.096780e-14
3.662900e-14
1.175774e-13
3.656312e-13
1.106030e-12
3.264359e-12
9.407030e-12
2.643894e-11
7.227683e-11
1.915039e-10
4.899779e-10
1.206627e-09
2.852825e-09
6.465164e-09
1.403327e-08
2.917484e-08
5.812633e-08
1.110895e-07
2.039116e-07
3.599755e-07
6.120479e-07
1.003691e-06
1.589744e-06
2.435346e-06
3.613079e-06
5.198059e-06
7.261152e-06
9.860959e-06
1.303556e-05
1.679529e-05
2.111768e-05
2.594560e-05
3.118896e-05
3.672977e-05
4.242998e-05
4.814086e-05
5.371284e-05
5.900462e-05
6.389070e-05
0.000000e+00
0.000000e+00
4.717546e-18
3.467485e-18
-1.107004e-18
-4.064253e-18
2.886442e-18
1.801340e-18
3.287781e-18
4.852738e-18
8.740456e-19
2.490282e-18
4.835143e-18
2.071970e-18
3.142212e-18
1.877342e-18
-5.668021e-19
2.530792e-18
3.422554e-18
2.998523e-18
4.784450e-18
5.600520e-18
3.657223e-18
3.175087e-18
5.793125e-18
2.618041e-18
8.206832e-19
6.604178e-17
2.356731e-16
9.159154e-16
3.267400e-15
1.103976e-14
3.578285e-14
1.116462e-13
3.374372e-13
9.938291e-13
2.864167e-12
8.095396e-12
2.244163e-11
6.089248e-11
1.611360e-10
4.140220e-10
1.028335e-09
2.459605e-09
5.648879e-09
1.243448e-08
2.621152e-08
5.291109e-08
1.023431e-07
1.898837e-07
3.383881e-07
5.800772e-07
9.580074e-07
1.526625e-06
2.350872e-06
3.503415e-06
5.059797e-06
7.091689e-06
9.658867e-06
1.280090e-05
1.652979e-05
2.082483e-05
2.563054e-05
3.085828e-05
3.639117e-05
4.209183e-05
4.781182e-05
5.340141e-05
5.871879e-05
6.363763e-05
0.000000e+00
0.000000e+00
2.469825e-18
9.284239e-19
4.147757e-18
4.454606e-18
2.817881e-18
2.356244e-18
1.402770e-18
4.335994e-18
2.189548e-18
4.405697e-18
4.285603e-18
4.781614e-18
4.726235e-18
1.325912e-18
3.917689e-18
9.923557e-19
2.856814e-18
2.514052e-18
4.261812e-18
4.145694e-18
3.583216e-18
4.734341e-18
3.274253e-19
-2.299334e-18
1.021798e-17
6.069717e-17
2.618746e-16
9.814061e-16
3.331251e-15
1.101130e-14
3.480498e-14
1.058879e-13
3.118216e-13
8.948149e-13
2.514256e-12
6.943253e-12
1.887957e-11
5.052297e-11
1.327065e-10
3.406725e-10
8.504007e-10
2.053946e-09
4.779499e-09
1.068108e-08
2.287711e-08
4.691612e-08
9.211955e-08
1.732870e-07
3.126453e-07
5.417901e-07
9.032264e-07
1.451006e-06
2.249922e-06
3.372825e-06
4.895835e-06
6.891630e-06
9.421392e-06
1.252643e-05
1.622069e-05
2.048544e-05
2.526708e-05
3.047852e-05
3.600405e-05
4.170700e-05
4.743912e-05
5.305042e-05
5.839840e-05
6.335575e-05
0.000000e+00
0.000000e+00
-1.416097e-18
6.251411e-18
5.631462e-18
4.543898e-18
2.410713e-19
3.471587e-18
5.617729e-19
4.865447e-18
4.060368e-18
3.174981e-19
4.126342e-18
2.550337e-18
1.523278e-18
4.555469e-18
3.847971e-18
-2.937970e-18
4.014676e-18
3.572278e-18
-5.691378e-19
1.955097e-18
1.469913e-18
6.224507e-18
6.738174e-18
3.628375e-18
1.340659e-17
6.875661e-17
2.608944e-16
9.926756e-16
3.362216e-15
1.084877e-14
3.363941e-14
1.001695e-13
2.886435e-13
8.092159e-13
2.218918e-12
5.979137e-12
1.588761e-11
4.169251e-11
1.079635e-10
2.750270e-10
6.859434e-10
1.665776e-09
3.917551e-09
8.881331e-09
1.934176e-08
4.037308e-08
8.068369e-08
1.543540e-07
2.828489e-07
4.970462e-07
8.388734e-07
1.362042e-06
2.131331e-06
3.219970e-06
4.704899e-06
6.660062e-06
9.148318e-06
1.221295e-05
1.587008e-05
2.010311e-05
2.486039e-05
3.005645e-05
3.557673e-05
4.128514e-05
4.703351e-05
5.267140e-05
5.805545e-05
6.305715e-05
0.000000e+00
0.000000e+00
3.921465e-18
5.888766e-18
2.957186e-18
4.167021e-18
2.858922e-18
5.296600e-18
2.555416e-18
2.943445e-18
5.500543e-18
-2.782929e-18
2.145511e-18
2.090072e-18
1.903176e-18
5.610009e-18
6.240877e-18
-1.257215e-18
1.461584e-18
1.138527e-18
2.118718e-18
5.392118e-18
2.786252e-18
1.809037e-18
4.456376e-18
5.631903e-18
2.293678e-17
7.052348e-17
2.840261e-16
9.857277e-16
3.338901e-15
1.055952e-14
3.224337e-14
9.441032e-14
2.673206e-13
7.348837e-13
1.972085e-12
5.191364e-12
1.346575e-11
3.452841e-11
8.763909e-11
2.199625e-10
5.441076e-10
1.319836e-09
3.121216e-09
7.155123e-09
1.582224e-08
3.362414e-08
6.850033e-08
1.336092e-07
2.494419e-07
4.459953e-07
7.645685e-07
1.258633e-06
1.993204e-06
3.042264e-06
4.484003e-06
6.394062e-06
8.837339e-06
1.185938e-05
1.547862e-05
1.968067e-05
2.441579e-05
2.959998e-05
3.511960e-05
4.083896e-05
4.660966e-05
5.228058e-05
5.770726e-05
6.275979e-05
0.000000e+00
0.000000e+00
-7.838754e-19
3.178135e-18
-1.325322e-18
2.458750e-18
8.661777e-19
-1.977987e-19
-1.189645e-18
1.775322e-18
3.923910e-18
5.973491e-18
-4.655823e-19
2.318227e-18
4.516404e-18
4.944232e-18
8.922821e-19
3.004779e-18
2.846963e-18
-2.853096e-18
5.721613e-18
8.199781e-19
7.899575e-18
3.303598e-18
8.288924e-18
3.659507e-18
2.002172e-17
7.285337e-17
2.809075e-16
1.004477e-15
3.230066e-15
1.018876e-14
3.060971e-14
8.854552e-14
2.471897e-13
6.690675e-13
1.763568e-12
4.548586e-12
1.153387e-11
2.887606e-11
7.159964e-11
1.760465e-10
4.287495e-10
1.030750e-09
2.433523e-09
5.608483e-09
1.254331e-08
2.708316e-08
5.623053e-08
1.119572e-07
2.134475e-07
3.894969e-07
6.805839e-07
1.139987e-06
1.833304e-06
2.835877e-06
4.227921e-06
6.087554e-06
8.482378e-06
1.146064e-05
1.504327e-05
1.921801e-05
2.393676e-05
2.911656e-05
3.464423e-05
4.038392e-05
4.618654e-05
5.189989e-05
5.737805e-05
6.248950e-05
0.000000e+00
0.000000e+00
-1.304681e-18
1.750176e-19
2.619915e-19
3.805045e-18
1.474318e-18
-2.333749e-19
3.644867e-18
6.916770e-18
2.514868e-18
2.449347e-18
3.036962e-18
-1.681002e-18
4.214873e-18
4.218356e-18
-7.309926e-19
-2.278102e-18
-8.154600e-19
3.598212e-18
1.640982e-18
7.411293e-18
5.124699e-18
3.981986e-18
8.989725e-18
7.012940e-18
8.202705e-18
7.733629e-17
2.621521e-16
9.539557e-16
3.108808e-15
9.657635e-15
2.880504e-14
8.247024e-14
2.278061e-13
6.092001e-13
1.583226e-12
4.015558e-12
9.984450e-12
2.444811e-11
5.919565e-11
1.421548e-10
3.389786e-10
8.017466e-10
1.874462e-09
4.309720e-09
9.685595e-09
2.114868e-08
4.462721e-08
9.062306e-08
1.765677e-07
3.295063e-07
5.886004e-07
1.006710e-06
1.650252e-06
2.596707e-06
3.929527e-06
5.730725e-06
8.071916e-06
1.100500e-05
1.455383e-05
1.870820e-05
2.342109e-05
2.860975e-05
3.416044e-05
3.993618e-05
4.578630e-05
5.155673e-05
5.709962e-05
6.228144e-05
0.000000e+00
0.000000e+00
5.989811e-18
2.190735e-18
2.139769e-18
4.403424e-18
3.481169e-18
-7.463000e-20
5.005392e-18
4.559105e-18
-4.402703e-19
3.867027e-18
-2.430362e-19
2.431711e-18
1.216913e-18
3.411764e-18
4.882812e-18
4.241954e-18
2.781862e-18
6.239791e-18
8.405866e-18
8.603404e-18
-4.151427e-18
8.830539e-18
7.770306e-18
2.931570e-18
1.418415e-17
6.943938e-17
2.683081e-16
9.100386e-16
2.940688e-15
9.076288e-15
2.681748e-14
7.620732e-14
2.088772e-13
5.534398e-13
1.422860e-12
3.561803e-12
8.716261e-12
2.094129e-11
4.961152e-11
1.163564e-10
2.709518e-10
6.271828e-10
1.441572e-09
3.279329e-09
7.345862e-09
1.610652e-08
3.435720e-08
7.091045e-08
1.409771e-07
2.691109e-07
4.922536e-07
8.620629e-07
1.445496e-06
2.322728e-06
3.581937e-06
5.311226e-06
7.588652e-06
1.047186e-05
1.398893e-05
1.813202e-05
2.285456e-05
2.807267e-05
3.367030e-05
3.950747e-05
4.543027e-05
5.128139e-05
5.691002e-05
6.218005e-05
0.000000e+00
0.000000e+00
6.253642e-18
4.061175e-18
1.539933e-18
7.094508e-19
3.046537e-18
1.670982e-18
-1.178979e-18
4.301429e-18
3.917584e-18
-0.000000e+00
-4.012380e-18
3.894350e-18
6.418223e-18
-1.627999e-18
4.733216e-18
4.256888e-18
4.765180e-18
4.948542e-19
3.477429e-18
1.662017e-18
4.335605e-18
5.100620e-18
1.927803e-18
-2.099524e-18
1.156524e-17
6.080116e-17
2.479388e-16
8.589679e-16
2.736688e-15
8.418253e-15
2.471094e-14
6.983262e-14
1.901979e-13
5.006252e-13
1.276664e-12
3.164312e-12
7.648611e-12
1.809790e-11
4.209212e-11
9.663266e-11
2.198164e-10
4.968675e-10
1.117311e-09
2.497148e-09
5.529595e-09
1.207271e-08
2.583623e-08
5.386868e-08
1.088203e-07
2.120016e-07
3.969289e-07
7.125883e-07
1.225222e-06
2.017311e-06
3.182795e-06
4.818462e-06
7.012533e-06
9.832371e-06
1.331357e-05
1.745240e-05
2.220279e-05
2.747817e-05
3.315758e-05
3.909494e-05
4.513000e-05
5.109964e-05
5.684811e-05
6.223546e-05
0.000000e+00
0.000000e+00
1.869602e-18
3.486804e-18
4.564227e-18
3.253970e-18
3.882064e-18
2.914521e-18
3.820613e-18
2.834370e-19
4.698591e-18
1.985935e-18
4.584203e-18
3.656420e-18
3.256799e-18
4.245250e-18
6.061262e-18
2.630931e-18
1.320699e-18
5.635113e-18
5.156862e-18
1.151589e-17
1.071137e-17
5.955212e-18
1.932735e-18
5.554189e-18
1.638639e-17
6.781478e-17
2.155133e-16
8.000167e-16
2.508778e-15
7.690859e-15
2.251106e-14
6.338127e-14
1.718512e-13
4.500639e-13
1.140964e-12
2.807397e-12
6.723580e-12
1.572399e-11
3.603842e-11
8.126815e-11
1.810407e-10
3.998856e-10
8.782035e-10
1.919865e-09
4.174498e-09
9.001905e-09
1.916265e-08
4.004136e-08
8.164143e-08
1.615229e-07
3.086068e-07
5.672987e-07
1.000776e-06
1.691806e-06
2.739467e-06
4.250914e-06
6.328740e-06
9.056032e-06
1.248220e-05
1.661266e-05
2.140430e-05
2.676744e-05
3.257328e-05
3.866511e-05
4.487130e-05
5.101814e-05
5.694107e-05
6.249361e-05
0.000000e+00
0.000000e+00
1.904859e-18
1.675988e-19
-4.137810e-19
5.319616e-18
6.646131e-18
3.334743e-18
4.423521e-18
6.784430e-18
2.107506e-18
4.056968e-19
1.300218e-18
3.583364e-18
1.143419e-18
-1.639135e-19
2.961997e-18
5.452567e-18
3.151928e-18
2.497552e-18
7.182844e-18
8.793673e-18
3.693151e-18
-8.408290e-19
9.388023e-18
1.938552e-18
1.322193e-17
6.173793e-17
2.245859e-16
7.010238e-16
2.293182e-15
6.974801e-15
2.028730e-14
5.694864e-14
1.538768e-13
4.015407e-13
1.013647e-12
2.481087e-12
5.902415e-12
1.368485e-11
3.101768e-11
6.896743e-11
1.510016e-10
3.268119e-10
7.016676e-10
1.498452e-09
3.186831e-09
6.745097e-09
1.417038e-08
2.942159e-08
6.004840e-08
1.197784e-07
2.322136e-07
4.354248e-07
7.865976e-07
1.365119e-06
2.271978e-06
3.623581e-06
5.539350e-06
8.124514e-06
1.145157e-05
1.554479e-05
2.037169e-05
2.584305e-05
3.182123e-05
3.813406e-05
4.459130e-05
5.100081e-05
5.718214e-05
6.297663e-05
0.000000e+00
0.000000e+00
5.664342e-18
6.091593e-18
5.847047e-18
-1.468604e-18
8.602312e-20
2.803829e-18
-2.268142e-18
-8.105601e-20
-3.489067e-18
6.257981e-18
4.561766e-18
3.268288e-18
1.148096e-18
7.904827e-18
3.472940e-18
8.302476e-18
6.333139e-18
-3.176652e-18
8.130239e-18
1.142326e-17
9.927768e-18
8.255532e-18
3.077687e-18
4.218973e-18
8.526700e-18
5.058796e-17
1.902300e-16
6.457980e-16
2.047357e-15
6.222078e-15
1.806931e-14
5.059816e-14
1.364301e-13
3.550745e-13
8.937289e-13
2.179563e-12
5.160817e-12
1.189199e-11
2.673633e-11
5.882237e-11
1.270617e-10
2.704471e-10
5.693056e-10
1.189259e-09
2.471720e-09
5.117444e-09
1.054914e-08
2.160057e-08
4.375955e-08
8.726483e-08
1.703556e-07
3.237859e-07
5.962248e-07
1.059349e-06
1.810502e-06
2.970277e-06
4.672858e-06
7.048842e-06
1.020304e-05
1.419232e-05
1.900937e-05
2.457699e-05
3.075414e-05
3.735166e-05
4.415343e-05
5.093808e-05
5.749763e-05
6.365089e-05
0.000000e+00
0.000000e+00
5.957899e-18
-1.974513e-18
1.267460e-18
4.776683e-18
1.639715e-18
-2.106024e-18
-1.215788e-18
4.949604e-18
1.869439e-18
5.703583e-18
5.721992e-18
2.297667e-18
1.384484e-17
7.449058e-18
9.141834e-18
1.050998e-17
3.765267e-18
9.311288e-18
-7.144593e-18
-5.934969e-18
1.896343e-18
8.182376e-18
1.253446e-17
1.089341e-17
1.234343e-17
3.784108e-17
1.654565e-16
5.861840e-16
1.816133e-15
5.462233e-15
1.589446e-14
4.443910e-14
1.196481e-13
3.108762e-13
7.809519e-13
1.899876e-12
4.484376e-12
1.028991e-11
2.300365e-11
5.022704e-11
1.074128e-10
2.256961e-10
4.675539e-10
9.582987e-10
1.949562e-09
3.946632e-09
7.960143e-09
1.599088e-08
3.192881e-08
6.313716e-08
1.230650e-07
2.352048e-07
4.384520e-07
7.932976e-07
1.387282e-06
2.337044e-06
3.783781e-06
5.879712e-06
8.765696e-06
1.254372e-05
1.725108e-05
2.284382e-05
2.919467e-05
3.610606e-05
4.333440e-05
5.061896e-05
5.770889e-05
6.438388e-05
0.000000e+00
0.000000e+00
2.565292e-18
2.458360e-18
5.705039e-18
6.113205e-18
2.794342e-18
2.350364e-18
5.355153e-18
5.120986e-18
1.792970e-18
4.252524e-18
2.299222e-18
4.783937e-18
1.325600e-17
-1.497499e-18
6.178808e-18
7.872597e-18
2.686557e-18
2.943972e-18
7.496787e-18
3.246415e-18
1.983095e-18
5.192634e-18
9.417881e-18
8.248081e-18
9.918434e-18
3.020758e-17
1.464258e-16
4.960261e-16
1.566262e-15
4.766983e-15
1.381178e-14
3.855250e-14
1.037010e-13
2.691608e-13
6.753858e-13
1.640690e-12
3.865121e-12
8.845115e-12
1.969977e-11
4.279035e-11
9.086268e-11
1.891239e-10
3.870212e-10
7.812060e-10
1.560569e-09
3.094745e-09
6.107167e-09
1.200855e-08
2.352351e-08
4.582508e-08
8.848915e-08
1.686491e-07
3.156753e-07
5.773691e-07
1.026905e-06
1.768568e-06
2.939085e-06
4.700813e-06
7.224164e-06
1.065981e-05
1.510565e-05
2.057725e-05
2.699103e-05
3.416613e-05
4.184510e-05
4.972727e-05
5.750598e-05
6.490112e-05
0.000000e+00
0.000000e+00
6.175250e-18
5.007900e-18
-1.745810e-18
4.656840e-19
5.389098e-18
4.949125e-18
2.438646e-19
1.793356e-18
3.109040e-18
6.080868e-18
8.916305e-18
8.957296e-18
1.016087e-17
8.525730e-18
6.455018e-18
3.276974e-18
1.077408e-17
7.248244e-18
2.404294e-18
9.518067e-18
-3.842771e-18
8.490538e-18
1.247436e-17
1.379645e-17
1.343827e-17
2.308990e-17
1.347688e-16
4.350326e-16
1.344137e-15
4.078241e-15
1.183691e-14
3.300572e-14
8.872260e-14
2.302371e-13
5.774147e-13
1.401741e-12
3.298910e-12
7.538031e-12
1.675092e-11
3.626508e-11
7.664371e-11
1.584831e-10
3.214548e-10
6.413991e-10
1.262841e-09
2.461207e-09
4.762094e-09
9.168707e-09
1.758939e-08
3.362166e-08
6.393914e-08
1.206290e-07
2.248887e-07
4.124035e-07
7.403248e-07
1.294890e-06
2.197384e-06
3.604740e-06
5.700525e-06
8.673433e-06
1.268416e-05
1.782682e-05
2.409540e-05
3.136636e-05
3.940423e-05
4.788981e-05
5.646305e-05
6.476905e-05
0.000000e+00
0.000000e+00
5.678821e-18
5.560967e-18
4.848686e-18
2.228272e-18
3.488313e-18
6.096517e-18
-1.630630e-19
-4.911310e-19
8.223650e-19
5.454292e-18
1.311904e-17
1.000588e-17
3.012384e-18
8.810921e-18
8.157234e-18
1.061303e-17
8.179835e-18
7.933341e-18
-7.452252e-18
2.428703e-18
-3.834060e-18
4.426199e-18
1.759005e-18
-8.578769e-18
9.873030e-18
2.489610e-17
9.736010e-17
3.583183e-16
1.150851e-15
3.440981e-15
9.990972e-15
2.787021e-14
7.487849e-14
1.943104e-13
4.873496e-13
1.183089e-12
2.783722e-12
6.357281e-12
1.411187e-11
3.049600e-11
6.426697e-11
1.323271e-10
2.667860e-10
5.279441e-10
1.028255e-09
1.976833e-09
3.762586e-09
7.109774e-09
1.336746e-08
2.504057e-08
4.674088e-08
8.683174e-08
1.601418e-07
2.921739e-07
5.251195e-07
9.255284e-07
1.592512e-06
2.663886e-06
4.316144e-06
6.753515e-06
1.018296e-05
1.477611e-05
2.062535e-05
2.770591e-05
3.585713e-05
4.479087e-05
5.412645e-05
6.344273e-05
0.000000e+00
0.000000e+00
5.960393e-18
5.283329e-18
-2.430404e-19
4.379848e-18
5.120624e-18
6.197288e-18
-2.293030e-18
2.962927e-18
1.025852e-17
9.643424e-18
1.135391e-17
4.356179e-18
6.635763e-18
9.426455e-18
8.133610e-18
7.762160e-18
6.712141e-18
1.858294e-18
1.019189e-17
-5.809859e-18
8.578266e-18
3.169433e-18
7.041439e-18
1.087094e-17
6.634291e-18
2.558514e-17
8.152572e-17
3.038499e-16
9.459263e-16
2.850846e-15
8.291063e-15
2.313307e-14
6.224218e-14
1.615856e-13
4.055171e-13
9.849339e-13
2.318466e-12
5.295872e-12
1.175415e-11
2.538425e-11
5.341988e-11
1.097278e-10
2.203934e-10
4.337537e-10
8.384104e-10
1.595712e-09
2.998703e-09
5.579718e-09
1.030696e-08
1.894174e-08
3.467841e-08
6.326430e-08
1.148942e-07
2.072730e-07
3.702776e-07
6.525104e-07