# vtk DataFile Version 3.0
Resultado Projeto 3
ASCII
DATASET STRUCTURED_GRID
DIMENSIONS 140 60 1 
POINTS 8400 double
0.000000e+00 0.000000e+00 0.000000e+00
2.517986e-02 0.000000e+00 0.000000e+00
5.035971e-02 0.000000e+00 0.000000e+00
7.553957e-02 0.000000e+00 0.000000e+00
1.007194e-01 0.000000e+00 0.000000e+00
1.258993e-01 0.000000e+00 0.000000e+00
1.510791e-01 0.000000e+00 0.000000e+00
1.762590e-01 0.000000e+00 0.000000e+00
2.014388e-01 0.000000e+00 0.000000e+00
2.266187e-01 0.000000e+00 0.000000e+00
2.517986e-01 0.000000e+00 0.000000e+00
2.769784e-01 0.000000e+00 0.000000e+00
3.021583e-01 0.000000e+00 0.000000e+00
3.273381e-01 0.000000e+00 0.000000e+00
3.525180e-01 0.000000e+00 0.000000e+00
3.776978e-01 0.000000e+00 0.000000e+00
4.028777e-01 0.000000e+00 0.000000e+00
4.280576e-01 0.000000e+00 0.000000e+00
4.532374e-01 0.000000e+00 0.000000e+00
4.784173e-01 0.000000e+00 0.000000e+00
5.035971e-01 0.000000e+00 0.000000e+00
5.287770e-01 0.000000e+00 0.000000e+00
5.539568e-01 0.000000e+00 0.000000e+00
5.791367e-01 0.000000e+00 0.000000e+00
6.043165e-01 0.000000e+00 0.000000e+00
6.294964e-01 0.000000e+00 0.000000e+00
6.546763e-01 0.000000e+00 0.000000e+00
6.798561e-01 0.000000e+00 0.000000e+00
7.050360e-01 0.000000e+00 0.000000e+00
7.302158e-01 0.000000e+00 0.000000e+00
7.553957e-01 0.000000e+00 0.000000e+00
7.805755e-01 0.000000e+00 0.000000e+00
8.057554e-01 0.000000e+00 0.000000e+00
8.309353e-01 0.000000e+00 0.000000e+00
8.561151e-01 0.000000e+00 0.000000e+00
8.812950e-01 0.000000e+00 0.000000e+00
9.064748e-01 0.000000e+00 0.000000e+00
9.316547e-01 0.000000e+00 0.000000e+00
9.568345e-01 0.000000e+00 0.000000e+00
9.820144e-01 0.000000e+00 0.000000e+00
1.007194e+00 0.000000e+00 0.000000e+00
1.032374e+00 0.000000e+00 0.000000e+00
1.057554e+00 0.000000e+00 0.000000e+00
1.082734e+00 0.000000e+00 0.000000e+00
1.107914e+00 0.000000e+00 0.000000e+00
1.133094e+00 0.000000e+00 0.000000e+00
1.158273e+00 0.000000e+00 0.000000e+00
1.183453e+00 0.000000e+00 0.000000e+00
1.208633e+00 0.000000e+00 0.000000e+00
1.233813e+00 0.000000e+00 0.000000e+00
1.258993e+00 0.000000e+00 0.000000e+00
1.284173e+00 0.000000e+00 0.000000e+00
1.309353e+00 0.000000e+00 0.000000e+00
1.334532e+00 0.000000e+00 0.000000e+00
1.359712e+00 0.000000e+00 0.000000e+00
1.384892e+00 0.000000e+00 0.000000e+00
1.410072e+00 0.000000e+00 0.000000e+00
1.435252e+00 0.000000e+00 0.000000e+00
1.460432e+00 0.000000e+00 0.000000e+00
1.485612e+00 0.000000e+00 0.000000e+00
1.510791e+00 0.000000e+00 0.000000e+00
1.535971e+00 0.000000e+00 0.000000e+00
1.561151e+00 0.000000e+00 0.000000e+00
1.586331e+00 0.000000e+00 0.000000e+00
1.611511e+00 0.000000e+00 0.000000e+00
1.636691e+00 0.000000e+00 0.000000e+00
1.661871e+00 0.000000e+00 0.000000e+00
1.687050e+00 0.000000e+00 0.000000e+00
1.712230e+00 0.000000e+00 0.000000e+00
1.737410e+00 0.000000e+00 0.000000e+00
1.762590e+00 0.000000e+00 0.000000e+00
1.787770e+00 0.000000e+00 0.000000e+00
1.812950e+00 0.000000e+00 0.000000e+00
1.838129e+00 0.000000e+00 0.000000e+00
1.863309e+00 0.000000e+00 0.000000e+00
1.888489e+00 0.000000e+00 0.000000e+00
1.913669e+00 0.000000e+00 0.000000e+00
1.938849e+00 0.000000e+00 0.000000e+00
1.964029e+00 0.000000e+00 0.000000e+00
1.989209e+00 0.000000e+00 0.000000e+00
2.014388e+00 0.000000e+00 0.000000e+00
2.039568e+00 0.000000e+00 0.000000e+00
2.064748e+00 0.000000e+00 0.000000e+00
2.089928e+00 0.000000e+00 0.000000e+00
2.115108e+00 0.000000e+00 0.000000e+00
2.140288e+00 0.000000e+00 0.000000e+00
2.165468e+00 0.000000e+00 0.000000e+00
2.190647e+00 0.000000e+00 0.000000e+00
2.215827e+00 0.000000e+00 0.000000e+00
2.241007e+00 0.000000e+00 0.000000e+00
2.266187e+00 0.000000e+00 0.000000e+00
2.291367e+00 0.000000e+00 0.000000e+00
2.316547e+00 0.000000e+00 0.000000e+00
2.341727e+00 0.000000e+00 0.000000e+00
2.366906e+00 0.000000e+00 0.000000e+00
2.392086e+00 0.000000e+00 0.000000e+00
2.417266e+00 0.000000e+00 0.000000e+00
2.442446e+00 0.000000e+00 0.000000e+00
2.467626e+00 0.000000e+00 0.000000e+00
2.492806e+00 0.000000e+00 0.000000e+00
2.517986e+00 0.000000e+00 0.000000e+00
2.543165e+00 0.000000e+00 0.000000e+00
2.568345e+00 0.000000e+00 0.000000e+00
2.593525e+00 0.000000e+00 0.000000e+00
2.618705e+00 0.000000e+00 0.000000e+00
2.643885e+00 0.000000e+00 0.000000e+00
2.669065e+00 0.000000e+00 0.000000e+00
2.694245e+00 0.000000e+00 0.000000e+00
2.719424e+00 0.000000e+00 0.000000e+00
2.744604e+00 0.000000e+00 0.000000e+00
2.769784e+00 0.000000e+00 0.000000e+00
2.794964e+00 0.000000e+00 0.000000e+00
2.820144e+00 0.000000e+00 0.000000e+00
2.845324e+00 0.000000e+00 0.000000e+00
2.870504e+00 0.000000e+00 0.000000e+00
2.895683e+00 0.000000e+00 0.000000e+00
2.920863e+00 0.000000e+00 0.000000e+00
2.946043e+00 0.000000e+00 0.000000e+00
2.971223e+00 0.000000e+00 0.000000e+00
2.996403e+00 0.000000e+00 0.000000e+00
3.021583e+00 0.000000e+00 0.000000e+00
3.046763e+00 0.000000e+00 0.000000e+00
3.071942e+00 0.000000e+00 0.000000e+00
3.097122e+00 0.000000e+00 0.000000e+00
3.122302e+00 0.000000e+00 0.000000e+00
3.147482e+00 0.000000e+00 0.000000e+00
3.172662e+00 0.000000e+00 0.000000e+00
3.197842e+00 0.000000e+00 0.000000e+00
3.223022e+00 0.000000e+00 0.000000e+00
3.248201e+00 0.000000e+00 0.000000e+00
3.273381e+00 0.000000e+00 0.000000e+00
3.298561e+00 0.000000e+00 0.000000e+00
3.323741e+00 0.000000e+00 0.000000e+00
3.348921e+00 0.000000e+00 0.000000e+00
3.374101e+00 0.000000e+00 0.000000e+00
3.399281e+00 0.000000e+00 0.000000e+00
3.424460e+00 0.000000e+00 0.000000e+00
3.449640e+00 0.000000e+00 0.000000e+00
3.474820e+00 0.000000e+00 0.000000e+00
3.500000e+00 0.000000e+00 0.000000e+00
0.000000e+00 1.694915e-02 0.000000e+00
2.517986e-02 1.694915e-02 0.000000e+00
5.035971e-02 1.694915e-02 0.000000e+00
7.553957e-02 1.694915e-02 0.000000e+00
1.007194e-01 1.694915e-02 0.000000e+00
1.258993e-01 1.694915e-02 0.000000e+00
1.510791e-01 1.694915e-02 0.000000e+00
1.762590e-01 1.694915e-02 0.000000e+00
2.014388e-01 1.694915e-02 0.000000e+00
2.266187e-01 1.694915e-02 0.000000e+00
2.517986e-01 1.694915e-02 0.000000e+00
2.769784e-01 1.694915e-02 0.000000e+00
3.021583e-01 1.694915e-02 0.000000e+00
3.273381e-01 1.694915e-02 0.000000e+00
3.525180e-01 1.694915e-02 0.000000e+00
3.776978e-01 1.694915e-02 0.000000e+00
4.028777e-01 1.694915e-02 0.000000e+00
4.280576e-01 1.694915e-02 0.000000e+00
4.532374e-01 1.694915e-02 0.000000e+00
4.784173e-01 1.694915e-02 0.000000e+00
5.035971e-01 1.694915e-02 0.000000e+00
5.287770e-01 1.694915e-02 0.000000e+00
5.539568e-01 1.694915e-02 0.000000e+00
5.791367e-01 1.694915e-02 0.000000e+00
6.043165e-01 1.694915e-02 0.000000e+00
6.294964e-01 1.694915e-02 0.000000e+00
6.546763e-01 1.694915e-02 0.000000e+00
6.798561e-01 1.694915e-02 0.000000e+00
7.050360e-01 1.694915e-02 0.000000e+00
7.302158e-01 1.694915e-02 0.000000e+00
7.553957e-01 1.694915e-02 0.000000e+00
7.805755e-01 1.694915e-02 0.000000e+00
8.057554e-01 1.694915e-02 0.000000e+00
8.309353e-01 1.694915e-02 0.000000e+00
8.561151e-01 1.694915e-02 0.000000e+00
8.812950e-01 1.694915e-02 0.000000e+00
9.064748e-01 1.694915e-02 0.000000e+00
9.316547e-01 1.694915e-02 0.000000e+00
9.568345e-01 1.694915e-02 0.000000e+00
9.820144e-01 1.694915e-02 0.000000e+00
1.007194e+00 1.694915e-02 0.000000e+00
1.032374e+00 1.694915e-02 0.000000e+00
1.057554e+00 1.694915e-02 0.000000e+00
1.082734e+00 1.694915e-02 0.000000e+00
1.107914e+00 1.694915e-02 0.000000e+00
1.133094e+00 1.694915e-02 0.000000e+00
1.158273e+00 1.694915e-02 0.000000e+00
1.183453e+00 1.694915e-02 0.000000e+00
1.208633e+00 1.694915e-02 0.000000e+00
1.233813e+00 1.694915e-02 0.000000e+00
1.258993e+00 1.694915e-02 0.000000e+00
1.284173e+00 1.694915e-02 0.000000e+00
1.309353e+00 1.694915e-02 0.000000e+00
1.334532e+00 1.694915e-02 0.000000e+00
1.359712e+00 1.694915e-02 0.000000e+00
1.384892e+00 1.694915e-02 0.000000e+00
1.410072e+00 1.694915e-02 0.000000e+00
1.435252e+00 1.694915e-02 0.000000e+00
1.460432e+00 1.694915e-02 0.000000e+00
1.485612e+00 1.694915e-02 0.000000e+00
1.510791e+00 1.694915e-02 0.000000e+00
1.535971e+00 1.694915e-02 0.000000e+00
1.561151e+00 1.694915e-02 0.000000e+00
1.586331e+00 1.694915e-02 0.000000e+00
1.611511e+00 1.694915e-02 0.000000e+00
1.636691e+00 1.694915e-02 0.000000e+00
1.661871e+00 1.694915e-02 0.000000e+00
1.687050e+00 1.694915e-02 0.000000e+00
1.712230e+00 1.694915e-02 0.000000e+00
1.737410e+00 1.694915e-02 0.000000e+00
1.762590e+00 1.694915e-02 0.000000e+00
1.787770e+00 1.694915e-02 0.000000e+00
1.812950e+00 1.694915e-02 0.000000e+00
1.838129e+00 1.694915e-02 0.000000e+00
1.863309e+00 1.694915e-02 0.000000e+00
1.888489e+00 1.694915e-02 0.000000e+00
1.913669e+00 1.694915e-02 0.000000e+00
1.938849e+00 1.694915e-02 0.000000e+00
1.964029e+00 1.694915e-02 0.000000e+00
1.989209e+00 1.694915e-02 0.000000e+00
2.014388e+00 1.694915e-02 0.000000e+00
2.039568e+00 1.694915e-02 0.000000e+00
2.064748e+00 1.694915e-02 0.000000e+00
2.089928e+00 1.694915e-02 0.000000e+00
2.115108e+00 1.694915e-02 0.000000e+00
2.140288e+00 1.694915e-02 0.000000e+00
2.165468e+00 1.694915e-02 0.000000e+00
2.190647e+00 1.694915e-02 0.000000e+00
2.215827e+00 1.694915e-02 0.000000e+00
2.241007e+00 1.694915e-02 0.000000e+00
2.266187e+00 1.694915e-02 0.000000e+00
2.291367e+00 1.694915e-02 0.000000e+00
2.316547e+00 1.694915e-02 0.000000e+00
2.341727e+00 1.694915e-02 0.000000e+00
2.366906e+00 1.694915e-02 0.000000e+00
2.392086e+00 1.694915e-02 0.000000e+00
2.417266e+00 1.694915e-02 0.000000e+00
2.442446e+00 1.694915e-02 0.000000e+00
2.467626e+00 1.694915e-02 0.000000e+00
2.492806e+00 1.694915e-02 0.000000e+00
2.517986e+00 1.694915e-02 0.000000e+00
2.543165e+00 1.694915e-02 0.000000e+00
2.568345e+00 1.694915e-02 0.000000e+00
2.593525e+00 1.694915e-02 0.000000e+00
2.618705e+00 1.694915e-02 0.000000e+00
2.643885e+00 1.694915e-02 0.000000e+00
2.669065e+00 1.694915e-02 0.000000e+00
2.694245e+00 1.694915e-02 0.000000e+00
2.719424e+00 1.694915e-02 0.000000e+00
2.744604e+00 1.694915e-02 0.000000e+00
2.769784e+00 1.694915e-02 0.000000e+00
2.794964e+00 1.694915e-02 0.000000e+00
2.820144e+00 1.694915e-02 0.000000e+00
[...]
POINT_DATA 8400
SCALARS RES_Cont double
LOOKUP_TABLE default
0.000000e+00
0.000000e+00
0.000000e+00
0.000000e+00
0.000000e+00
0.000000e+00
0.000000e+00
0.000000e+00
0.000000e+00
0.000000e+00
0.000000e+00
0.000000e+00
0.000000e+00
0.000000e+00
0.000000e+00
0.000000e+00
0.000000e+00
0.000000e+00
0.000000e+00
0.000000e+00
0.000000e+00
0.000000e+00
0.000000e+00
0.000000e+00
0.000000e+00
0.000000e+00
0.000000e+00
0.000000e+00
0.000000e+00
0.000000e+00
0.000000e+00
0.000000e+00
0.000000e+00
0.000000e+00
0.000000e+00
0.000000e+00
0.000000e+00
0.000000e+00
0.000000e+00
0.000000e+00
0.000000e+00
0.000000e+00
0.000000e+00
0.000000e+00
0.000000e+00
0.000000e+00
0.000000e+00
0.000000e+00
0.000000e+00
0.000000e+00
0.000000e+00
0.000000e+00
0.000000e+00
0.000000e+00
0.000000e+00
0.000000e+00
0.000000e+00
0.000000e+00
0.000000e+00
0.000000e+00
0.000000e+00
0.000000e+00
0.000000e+00
0.000000e+00
0.000000e+00
0.000000e+00
0.000000e+00
0.000000e+00
0.000000e+00
0.000000e+00
0.000000e+00
0.000000e+00
0.000000e+00
0.000000e+00
0.000000e+00
0.000000e+00
0.000000e+00
0.000000e+00
0.000000e+00
0.000000e+00
0.000000e+00
0.000000e+00
0.000000e+00
0.000000e+00
0.000000e+00
0.000000e+00
0.000000e+00
0.000000e+00
0.000000e+00
0.000000e+00
0.000000e+00
0.000000e+00
0.000000e+00
0.000000e+00
0.000000e+00
0.000000e+00
0.000000e+00
0.000000e+00
0.000000e+00
0.000000e+00
0.000000e+00
0.000000e+00
0.000000e+00
0.000000e+00
0.000000e+00
0.000000e+00
0.000000e+00
0.000000e+00
0.000000e+00
0.000000e+00
0.000000e+00
0.000000e+00
0.000000e+00
0.000000e+00
0.000000e+00
0.000000e+00
0.000000e+00
0.000000e+00
0.000000e+00
0.000000e+00
0.000000e+00
0.000000e+00
0.000000e+00
0.000000e+00
0.000000e+00
0.000000e+00
0.000000e+00
0.000000e+00
0.000000e+00
0.000000e+00
0.000000e+00
0.000000e+00
0.000000e+00
0.000000e+00
0.000000e+00
0.000000e+00
0.000000e+00
0.000000e+00
0.000000e+00
0.000000e+00
0.000000e+00
-0.000000e+00
-0.000000e+00
-0.000000e+00
-0.000000e+00
-0.000000e+00
-0.000000e+00
3.951571e-19
-2.766100e-18
2.082467e-18
2.280046e-18
-4.179766e-18
-8.663792e-19
2.416391e-18
2.578590e-19
1.793992e-18
-1.484016e-18
-2.249020e-18
-5.253776e-19
1.909380e-18
-1.270536e-18
4.132212e-18
-7.431019e-19
1.456216e-18
-2.725732e-18
3.624877e-19
4.338613e-18
-2.664903e-18
-8.283298e-19
1.747706e-18
1.664343e-18
-2.373046e-18
-2.398896e-18
3.249507e-18
4.348978e-18
6.850600e-20
-3.599504e-19
2.135495e-18
5.333244e-18
1.361674e-19
4.364301e-18
1.814293e-18
-2.115780e-18
1.855262e-18
5.840219e-19
2.428431e-18
1.277962e-18
-4.262103e-18
-7.650665e-19
-1.489947e-20
-4.206229e-18
-1.407433e-18
1.422194e-18
9.560879e-19
4.702385e-18
-5.485773e-19
4.987120e-18
1.562135e-18
2.205832e-18
6.862799e-18
6.801519e-18
-1.380043e-18
-8.175573e-19
5.060336e-18
1.569174e-17
2.141289e-18
-7.796271e-18
-1.613073e-17
-1.745931e-17
-2.577637e-18
1.092485e-17
3.865122e-17
5.189195e-17
2.690969e-17
-1.946734e-17
-2.777897e-17
6.912152e-18
-1.222387e-17
7.243741e-18
-1.304826e-19
-2.140233e-18
-2.473804e-18
2.527653e-17
5.082484e-17
1.731464e-16
6.133628e-16
1.984237e-15
6.080856e-15
1.812041e-14
5.203506e-14
1.452330e-13
3.939351e-13
1.038988e-12
2.665928e-12
6.657358e-12
1.618603e-11
3.832891e-11
8.843158e-11
1.988457e-10
4.358848e-10
9.317033e-10
1.942328e-09
3.949836e-09
7.836159e-09
1.516822e-08
2.864811e-08
5.279499e-08
9.493220e-08
1.665442e-07
2.850324e-07
4.758218e-07
7.746392e-07
1.229599e-06
1.902510e-06
2.868593e-06
4.213703e-06
6.028200e-06
8.397053e-06
1.138649e-05
1.502861e-05
1.930638e-05
2.414232e-05
2.939406e-05
3.485894e-05
4.028809e-05
4.540814e-05
4.994696e-05
5.365900e-05
5.634640e-05
5.787333e-05
5.817321e-05
5.724980e-05
5.517450e-05
5.208185e-05
4.816479e-05
4.366951e-05
3.888858e-05
3.414950e-05
2.979570e-05
0.000000e+00
0.000000e+00
-0.000000e+00
-0.000000e+00
-0.000000e+00
-0.000000e+00
-0.000000e+00
3.951571e-19
-5.927357e-19
1.778207e-18
7.903142e-19
-3.769777e-18
-1.094574e-18
5.684329e-18
1.580628e-18
-2.141795e-18
-1.059195e-18
-1.647168e-18
3.473138e-18
-1.936871e-18
-2.948863e-18
-1.466376e-18
-1.188830e-18
-6.450608e-19
-1.506236e-18
-5.300042e-19
-3.108179e-19
-1.920235e-18
-4.955105e-19
3.761654e-19
3.671948e-19
-3.355834e-18
-7.602581e-19
-1.335101e-18
2.112283e-18
2.620430e-18
1.400238e-18
-5.270686e-19
-1.159894e-18
-3.314508e-18
1.092347e-18
4.323399e-18
2.211716e-18
8.413603e-19
1.960753e-18
1.696734e-18
-9.175156e-19
3.145061e-18
-3.324716e-18
-1.164376e-18
-5.506660e-19
2.114343e-18
4.186001e-21
2.138426e-18
1.773133e-18
5.450584e-18
4.867393e-18
6.402627e-18
2.343174e-18
1.866869e-18
6.369696e-18
1.296944e-17
-2.546175e-19
-1.274826e-18
8.841659e-19
2.087590e-18
-1.154151e-17
-1.888374e-17
-1.431036e-17
-6.888752e-18
4.803934e-18
9.296592e-18
2.232769e-17
2.607179e-17
3.418734e-17
-2.595053e-18
1.750227e-17
-9.667676e-19
-9.242565e-18
-2.328624e-17
-8.230391e-18
-2.731912e-17
-4.553845e-18
1.648593e-17
3.500675e-17
1.451331e-16
6.431232e-16
1.971618e-15
5.971550e-15
1.774441e-14
5.107360e-14
1.427024e-13
3.875268e-13
1.023177e-12
2.627900e-12
6.568132e-12
1.598198e-11
3.787368e-11
8.744079e-11
1.967414e-10
4.315230e-10
9.228785e-10
1.924899e-09
3.916230e-09
7.772907e-09
1.505203e-08
2.843984e-08
5.243091e-08
9.431173e-08
1.655139e-07
2.833664e-07
4.731995e-07
7.706229e-07
1.223614e-06
1.893830e-06
2.856338e-06
4.196849e-06
6.005608e-06
8.367518e-06
1.134883e-05
1.498176e-05
1.924961e-05
2.407544e-05
2.931765e-05
3.477460e-05
4.019862e-05
4.531753e-05
4.986020e-05
5.358170e-05
5.628424e-05
5.783144e-05
5.815559e-05
5.725887e-05
5.521080e-05
5.214402e-05
4.824969e-05
4.377253e-05
3.900402e-05
3.427103e-05
2.991672e-05
0.000000e+00
0.000000e+00
-0.000000e+00
-0.000000e+00
-0.000000e+00
-0.000000e+00
3.951571e-19
-7.903142e-19
3.860674e-18
3.465517e-18
-2.281951e-19
-2.447008e-18
2.203981e-18
1.808823e-18
-3.433948e-18
-2.306852e-18
-5.389186e-18
-2.049945e-18
1.842022e-18
-4.875665e-19
-2.390579e-18
2.868085e-18
1.190351e-18
3.096671e-18
2.665746e-18
2.905364e-18
-3.529972e-19
-4.207158e-18
-5.929693e-18
5.118775e-18
2.466719e-18
2.774320e-18
3.129085e-18
5.584901e-18
2.826901e-18
-2.610998e-18
-1.764448e-18
-1.330675e-18
5.835725e-18
3.047433e-18
2.155966e-18
-1.554788e-18
6.370335e-19
-1.821430e-18
2.930831e-18
1.698699e-18
5.649508e-19
5.381524e-18
-2.615236e-18
1.761305e-18
-2.948404e-18
3.593897e-18
-1.379084e-18
1.497548e-19
9.920768e-19
-4.596108e-19
6.449446e-18
1.771815e-18
1.974056e-18
-8.037841e-20
5.185464e-18
-3.819475e-19
-7.115944e-18
2.035760e-18
-4.815017e-19
-7.475525e-18
-9.452626e-18
4.277305e-18
-3.024176e-18
5.699738e-18
-4.882669e-18
-9.160112e-18
2.090097e-17
-2.684784e-18
-1.633660e-17
-3.916218e-19
-7.295065e-18
-5.977506e-18
-3.061845e-18
-2.603488e-17
4.115505e-18
-1.800563e-17
-1.245473e-17
-5.341497e-19
5.774121e-17
1.902110e-16
6.106902e-16
1.912074e-15
5.767909e-15
1.711701e-14
4.937051e-14
1.383406e-13
3.765601e-13
9.961262e-13
2.562895e-12
6.415901e-12
1.563415e-11
3.709867e-11
8.575622e-11
1.931688e-10
4.241289e-10
9.079426e-10
1.895450e-09
3.859555e-09
7.666448e-09
1.485688e-08
2.809087e-08
5.182233e-08
9.327719e-08
1.638005e-07
2.806030e-07
4.688610e-07
7.639943e-07
1.213759e-06
1.879570e-06
2.836251e-06
4.169290e-06
5.968762e-06
8.319496e-06
1.128781e-05
1.490621e-05
1.915857e-05
2.396886e-05
2.919680e-05
3.464238e-05
4.005973e-05
4.517842e-05
4.972871e-05
5.346643e-05
5.619366e-05
5.777302e-05
5.813492e-05
5.727903e-05
5.527208e-05
5.224386e-05
4.838296e-05
4.393201e-05
3.918101e-05
3.445589e-05
3.009955e-05
0.000000e+00
0.000000e+00
-0.000000e+00
-0.000000e+00
-0.000000e+00
-0.000000e+00
-1.185471e-18
-1.778207e-18
5.018387e-19
-7.903142e-19
-1.702142e-18
-2.492456e-18
-4.099891e-19
-2.369990e-18
-2.262356e-18
3.484159e-18
3.250249e-18
9.608108e-19
5.714947e-19
2.361383e-18
4.102155e-18
6.475930e-19
-2.586798e-18
-1.789318e-18
2.385772e-19
-2.765599e-19
6.896002e-19
1.203048e-18
-3.231563e-18
1.492603e-18
5.820715e-18
-3.184482e-19
8.103829e-19
2.954859e-18
4.568592e-19
-3.827433e-18
-4.076988e-18
1.212710e-18
-2.066647e-18
1.881632e-18
4.768983e-19
4.423721e-19
-2.615674e-18
-3.688180e-19
3.933596e-18
-1.591877e-18
-1.298910e-18
-1.011791e-18
4.539963e-18
8.094670e-19
3.880433e-19
2.439928e-18
2.726142e-18
-2.062844e-18
-7.944776e-19
1.958932e-19
-1.833972e-18
5.357983e-19
-1.902353e-18
-3.175746e-18
-1.708764e-18
-2.211069e-18
-1.055182e-17
-7.380285e-18
-1.291607e-17
1.919662e-18
2.141230e-18
1.299768e-18
1.407386e-17
1.735052e-17
-1.633143e-17
-2.826822e-17
2.909565e-18
1.396604e-17
-1.645770e-17
7.088329e-18
1.143872e-18
-1.342438e-17
-2.078808e-17
6.667958e-18
1.312693e-17
2.611208e-17
-1.097520e-17
-4.485644e-17
4.714660e-17
1.872189e-16
6.088492e-16
1.812187e-15
5.450779e-15
1.619837e-14
4.702346e-14
1.321892e-13
3.609641e-13
9.576850e-13
2.470462e-12
6.199156e-12
1.513889e-11
3.599480e-11
8.335619e-11
1.880781e-10
4.135930e-10
8.866625e-10
1.853502e-09
3.778854e-09
7.514934e-09
1.457932e-08
2.759488e-08
5.095805e-08
9.180919e-08
1.613711e-07
2.766875e-07
4.627171e-07
7.546106e-07
1.199811e-06
1.859391e-06
2.807831e-06
4.130314e-06
5.916696e-06
8.251739e-06
1.120192e-05
1.480023e-05
1.903141e-05
2.382079e-05
2.902992e-05
3.446098e-05
3.987049e-05
4.499022e-05
4.955214e-05
5.331286e-05
5.607419e-05
5.769726e-05
5.810997e-05
5.730870e-05
5.535651e-05
5.237951e-05
4.856299e-05
4.414684e-05
3.941907e-05
3.470438e-05
3.034519e-05
0.000000e+00
0.000000e+00
-0.000000e+00
-0.000000e+00
-0.000000e+00
-0.000000e+00
-5.927357e-19
9.878928e-19
-4.362513e-18
-4.255831e-18
-1.732758e-18
-1.580628e-18
-8.357627e-19
-3.357883e-18
1.415572e-18
2.245619e-18
-1.634516e-18
5.327126e-18
-2.904785e-18
-1.327021e-19
1.485018e-18
2.474472e-18
2.063970e-19
-8.126944e-19
-1.643661e-18
-7.662183e-20
1.535274e-19
1.144770e-18
8.446847e-19
4.646220e-18
4.952511e-18
3.051649e-18
-1.585941e-19
-1.476622e-18
3.879708e-18
-2.767742e-18
-3.030167e-18
-2.438458e-18
-2.432581e-18
-1.124593e-18
-3.091988e-18
-1.881123e-18
2.331071e-19
4.233613e-18
1.737706e-18
1.563032e-18
2.050451e-18
1.268250e-18
3.083407e-18
-1.825312e-18
-1.613974e-18
-1.600311e-18
3.348759e-21
-2.300539e-18
-1.014621e-18
1.229768e-18
-2.186772e-18
-9.853780e-18
-9.916265e-19
-5.545140e-18
-3.349788e-18
2.945203e-18
3.100632e-18
1.333848e-18
-1.445503e-17
-1.673223e-17
-6.953975e-18
6.175026e-18
1.426074e-17
8.731275e-18
-3.252013e-17
-1.648504e-17
-1.780764e-17
-2.901638e-17
2.056608e-17
3.025812e-18
1.457982e-17
1.648605e-17
5.807562e-18
-3.249166e-18
2.702981e-18
4.758988e-18
-3.474461e-18
-1.296412e-17
1.653817e-17
1.694897e-16
5.410610e-16
1.648677e-15
5.050746e-15
1.507247e-14
4.398181e-14
1.243344e-13
3.409590e-13
9.082877e-13
2.351605e-12
5.920168e-12
1.450034e-11
3.456974e-11
8.025443e-11
1.814924e-10
3.999509e-10
8.590893e-10
1.799119e-09
3.674188e-09
7.318380e-09
1.421922e-08
2.695138e-08
4.983679e-08
8.990478e-08
1.582194e-07
2.716068e-07
4.547418e-07
7.424231e-07
1.181682e-06
1.833143e-06
2.770840e-06
4.079565e-06
5.848918e-06
8.163625e-06
1.109045e-05
1.466311e-05
1.886758e-05
2.363100e-05
2.881723e-05
3.423119e-05
3.963218e-05
4.475453e-05
4.933202e-05
5.312207e-05
5.592598e-05
5.760303e-05
5.807811e-05
5.734373e-05
5.545863e-05
5.254460e-05
4.878297e-05
4.441034e-05
3.971215e-05
3.501147e-05
3.064986e-05
0.000000e+00
0.000000e+00
-0.000000e+00
-0.000000e+00
-0.000000e+00
-0.000000e+00
2.766100e-18
-5.152827e-18
-2.477624e-18
1.930337e-18
-4.741885e-18
-3.860674e-18
-4.240047e-18
1.337601e-18
-6.132832e-19
9.851687e-19
1.162058e-18
-5.777967e-18
-1.634434e-20
-2.966194e-18
-2.020985e-18
-3.930343e-18
-3.967699e-18
-5.166526e-19
-2.578344e-18
1.346780e-18
3.157404e-18
-3.385715e-19
4.692545e-19
-2.197058e-18
8.782061e-19
-2.400677e-19
4.880814e-19
-2.277676e-19
-2.974289e-18
-1.365804e-18
-4.535923e-18
1.651008e-18
1.137032e-18
1.252194e-18
2.181978e-19
1.453178e-18
4.339282e-18
1.878394e-18
3.017438e-19
3.081799e-18
-1.930683e-18
2.739739e-19
3.150816e-18
4.140017e-18
4.106465e-19
-2.186729e-18
-4.356595e-18
8.421659e-19
-4.871389e-18
-6.322716e-18
1.929312e-18
1.728721e-18
1.013530e-18
-8.922707e-18
-1.493577e-17
4.381749e-18
-3.253616e-18
-3.629074e-18
-0.000000e+00
-1.133739e-17
-1.724798e-17
-1.450385e-18
1.114202e-17
1.319058e-17
-1.815897e-17
-1.316550e-17
-2.734098e-17
-1.840335e-17
-1.988344e-17
1.601582e-17
1.152367e-17
1.427839e-17
9.896936e-18
-7.921142e-18
7.489237e-18
-8.979314e-19
1.275937e-17
3.885610e-17
2.508848e-17
1.473871e-16
4.642499e-16
1.450484e-15
4.531202e-15
1.372241e-14
4.034452e-14
1.148557e-13
3.169844e-13
8.490174e-13
2.208611e-12
5.583892e-12
1.372911e-11
3.284509e-11
7.649345e-11
1.734931e-10
3.833552e-10
8.255002e-10
1.732794e-09
3.546412e-09
7.078230e-09
1.377895e-08
2.616418e-08
4.846442e-08
8.757263e-08
1.543573e-07
2.653762e-07
4.449523e-07
7.274463e-07
1.159376e-06
1.800807e-06
2.725218e-06
4.016933e-06
5.765267e-06
8.054968e-06
1.095326e-05
1.449487e-05
1.866740e-05
2.340027e-05
2.856017e-05
3.395511e-05
3.934752e-05
4.447440e-05
4.907136e-05
5.289648e-05
5.575028e-05
5.748992e-05
5.803691e-05
5.737955e-05
5.557185e-05
5.273091e-05
4.903363e-05
4.471278e-05
4.005079e-05
3.536846e-05
3.100610e-05
0.000000e+00
0.000000e+00
-0.000000e+00
-0.000000e+00
-0.000000e+00
1.975786e-19
8.969958e-19
-3.556414e-18
4.712221e-19
3.723376e-18
1.139070e-18
1.276368e-18
1.276368e-18
1.727996e-18
7.905650e-20
2.466051e-18
-5.488397e-18
-9.326510e-19
-2.532925e-18
2.070610e-19
-4.688545e-18
-3.854506e-18
-4.145058e-18
1.647755e-18
3.128144e-18
-2.394108e-18
-4.161122e-18
-2.418186e-18
-4.204551e-18
-4.530236e-18
-3.162331e-18
-5.917167e-18
8.608276e-20
-6.779225e-19
4.477071e-18
1.038692e-18
3.022282e-19
3.505853e-18
-2.265612e-19
3.536952e-18
-8.750016e-20
3.101107e-18
-2.244916e-18
-5.462812e-19
-2.556014e-18
-1.252763e-17
3.886708e-18
-3.486223e-18
-4.075929e-18
1.296400e-18
-9.828503e-19
6.513082e-19
8.622550e-19
-5.746270e-18
7.950522e-18
3.751619e-19
3.491080e-18
-5.059147e-19
-1.178791e-18
-7.010520e-18
-4.379811e-18
-1.919768e-18
-2.991149e-18
-1.163995e-17
-1.749933e-17
-7.758371e-18
-7.037098e-18
6.160532e-18
1.624017e-18
1.023742e-17
8.634665e-18
2.304099e-19
3.548080e-18
1.208125e-17
-1.803126e-17
-3.502029e-19
-9.752676e-18
2.037718e-18
2.685134e-17
-1.123583e-17
-1.640480e-17
1.467575e-17
9.960220e-18
6.524738e-18
5.707089e-17
1.412528e-16
3.631642e-16
1.218190e-15
3.980215e-15
1.222475e-14
3.621706e-14
1.040850e-13
2.895904e-13
7.811592e-13
2.044606e-12
5.197310e-12
1.284054e-11
3.085322e-11
7.213908e-11
1.642102e-10
3.640544e-10
7.863595e-10
1.655371e-09
3.397028e-09
6.797092e-09
1.326291e-08
2.524052e-08
4.685246e-08
8.483040e-08
1.498110e-07
2.580324e-07
4.333972e-07
7.097407e-07
1.132963e-06
1.762457e-06
2.671040e-06
3.942489e-06
5.665820e-06
7.925884e-06
1.079057e-05
1.429593e-05
1.843165e-05
2.312992e-05
2.826066e-05
3.363539e-05
3.901979e-05
4.415354e-05
4.877393e-05
5.263936e-05
5.554935e-05
5.735862e-05
5.798512e-05
5.741273e-05
5.569066e-05
5.293106e-05
4.930620e-05
4.504468e-05
4.042536e-05
3.576627e-05
3.140581e-05
0.000000e+00
0.000000e+00
-0.000000e+00
-0.000000e+00
-0.000000e+00
-1.383050e-18
3.951571e-18
3.161257e-18
1.975786e-19
-4.255831e-18
-2.675203e-18
8.051462e-19
2.032256e-18
7.545253e-19
-3.329857e-18
1.064902e-18
-4.188298e-19
-2.797176e-18
1.731729e-18
-1.517235e-18
-3.029095e-18
-1.894020e-18
2.821182e-18
4.383741e-18
-6.564316e-18
-2.459873e-18
-4.308280e-18
4.557053e-18
-1.985333e-18
-2.662821e-18
-9.120768e-19
2.078206e-18
-4.346365e-18
1.314360e-18
-1.019565e-19
3.219873e-18
-3.471687e-19
3.255180e-18
-1.414870e-18
-2.089657e-18
1.235598e-18
-2.478389e-18
2.210722e-21
-4.278078e-19
-2.470784e-19
-2.502607e-18
2.048012e-19
4.682480e-18
4.207740e-18
-3.252427e-18
-2.308864e-18
-9.424104e-19
7.618268e-18
4.809331e-18
1.075964e-17
-9.113271e-19
-3.651794e-18
-2.383917e-18
1.283900e-18
2.562685e-18
3.675982e-18
2.352988e-18
-3.891141e-18
-8.777602e-19
9.108102e-18
1.855992e-17
-4.390079e-18
8.818538e-18
-8.864837e-18
-5.937091e-18
4.642591e-18
7.886414e-18
1.587040e-17
6.374060e-18
-5.613790e-18
-1.724967e-17
5.257853e-18
4.437342e-18
9.661035e-18
2.062411e-17
-2.638331e-17
-5.853414e-18
-1.602905e-18
-7.147249e-18
7.959396e-18
1.170869e-16
3.296885e-16
1.036943e-15
3.399369e-15
1.056941e-14
3.178097e-14
9.232454e-14
2.594665e-13
7.061457e-13
1.862877e-12
4.768179e-12
1.185216e-11
2.863253e-11
6.727223e-11
1.538072e-10
3.423682e-10
7.422730e-10
1.567967e-09
3.228041e-09
6.478471e-09
1.267709e-08
2.419025e-08
4.501670e-08
8.170255e-08
1.446169e-07
2.496277e-07
4.201486e-07
6.894018e-07
1.102565e-06
1.718241e-06
2.608483e-06
3.856443e-06
5.550834e-06
7.776707e-06
1.060283e-05
1.406697e-05
1.816135e-05
2.282138e-05
2.792071e-05
3.327461e-05
3.865215e-05
4.379554e-05
4.844343e-05
5.235423e-05
5.532602e-05
5.721083e-05
5.792291e-05
5.744174e-05
5.581171e-05
5.314014e-05
4.959455e-05
4.539914e-05
4.082880e-05
3.619821e-05
3.184320e-05
0.000000e+00
0.000000e+00
-0.000000e+00
3.951571e-19
-1.975786e-19
-1.489731e-18
2.173364e-18
-3.739160e-18
-1.565796e-18
-2.523073e-18
-0.000000e+00
-6.410419e-19
4.120029e-18
3.879993e-18
-2.322369e-18
-2.741734e-18
-5.317667e-18
8.663946e-19
-5.228320e-19
4.711190e-18
4.915219e-18
4.684933e-18
2.252990e-18
2.575645e-18
-4.373243e-19
2.706694e-18
1.158522e-18
-2.549784e-18
2.831140e-18
-1.573406e-18
2.615466e-19
4.887267e-18
4.579358e-18
1.804869e-18
-3.297347e-19
-3.530272e-18
-2.427471e-18
1.786565e-19
-2.233563e-18
-9.269335e-19
-3.969749e-19
-3.022515e-18
3.020243e-18
6.380196e-18
6.367138e-18
1.527219e-18
2.551793e-18
-4.914311e-18
1.811636e-18
8.793386e-18
1.245541e-17
9.158833e-18
2.518635e-18
-1.444515e-17
-2.727335e-18
-2.184217e-18
-1.328261e-17
-5.668307e-18
5.336764e-19
1.205250e-17
-2.785189e-18
8.240083e-18
1.628803e-17
2.136662e-17
1.868549e-17
-3.360979e-18
1.069197e-17
-8.946812e-19
-8.241044e-19
-5.204384e-18
1.438295e-17
2.614238e-18
6.525651e-18
1.441193e-17
1.889702e-17
1.724849e-17
-9.514197e-18
-8.131057e-18
-5.678975e-18
-1.987432e-17
-3.671240e-18
-2.957560e-18
4.126406e-18
-1.268021e-17
-9.926544e-18
7.188455e-17
2.770752e-16
8.753687e-16
2.832620e-15
8.970684e-15
2.727195e-14
8.009472e-14
2.275201e-13
6.258192e-13
1.667043e-12
4.304244e-12
1.078143e-11
2.622231e-11
6.197875e-11
1.424644e-10
3.186593e-10
6.939421e-10
1.471893e-09
3.041821e-09
6.126532e-09
1.202857e-08
2.302515e-08
4.297606e-08
7.821850e-08
1.388192e-07
2.402264e-07
4.052968e-07
6.665516e-07
1.068340e-06
1.668365e-06
2.537801e-06
3.759112e-06
5.420700e-06
7.607924e-06
1.039068e-05
1.380880e-05
1.785750e-05
2.247598e-05
2.754200e-05
3.287489e-05
3.824713e-05
4.340331e-05
4.808304e-05
5.204427e-05
5.508322e-05
5.704894e-05
5.785184e-05
5.746705e-05
5.593436e-05
5.335639e-05
4.989602e-05
4.577297e-05
4.125781e-05
3.666134e-05
3.231615e-05
0.000000e+00
0.000000e+00
-0.000000e+00
-1.185471e-18
9.878928e-19
1.778207e-18
-2.884755e-19
1.185471e-18
-1.306985e-18
-2.599138e-18
1.016604e-18
2.331753e-18
3.181938e-18
-2.379925e-18
-3.106442e-19
1.082809e-18
5.040805e-18
-2.623957e-18
-5.200868e-18
-1.486190e-18
9.352707e-19
4.187716e-18
2.312181e-18
2.232188e-18
3.836054e-18
1.511615e-18
-3.619074e-18
4.140432e-18
4.356489e-18
2.625161e-18
3.441297e-18
-8.577027e-19
3.371942e-18
6.543129e-19
-3.534081e-18
-1.432928e-18
-6.301804e-19
2.869361e-19
6.080911e-18
3.962153e-18
-3.920331e-18
-2.603477e-18
-4.434861e-18
-7.894830e-18
-3.090803e-18
-5.879241e-18
-4.271327e-18
-5.290877e-18
7.869136e-20
-8.718867e-18
-6.855052e-18
1.418135e-17
1.332019e-17
-2.931736e-18
-1.409548e-17
-1.750908e-17
-1.443206e-17
1.920552e-18
1.034952e-17
9.445366e-18
-1.740367e-18
-1.589295e-17
-4.235651e-18
3.243756e-17
3.220799e-18
-1.527867e-17
-9.671707e-18
-2.346323e-18
-3.197210e-18
-6.160213e-18
1.630375e-17
1.809400e-17
1.012963e-17
2.034157e-17
3.366425e-17
3.970144e-17
1.880661e-17
-3.629207e-18
-2.000122e-17
-1.677572e-17
-1.828502e-17
-1.021399e-17
-1.080252e-17
9.093396e-18
-8.361902e-18
1.456064e-17
1.206886e-16
6.423961e-16
2.316599e-15
7.548032e-15
2.316609e-14
6.835472e-14
1.956766e-13
5.433390e-13
1.462430e-12
3.814645e-12
9.645632e-12
2.365905e-11
5.633956e-11
1.303594e-10
2.933021e-10