# vtk DataFile Version 3.0
Resultado Projeto 3
ASCII
DATASET STRUCTURED_GRID
DIMENSIONS 140 60 1 
POINTS 8400 double
0.000000e+00 0.000000e+00 0.000000e+00
2.517986e-02 0.000000e+00 0.000000e+00
5.035971e-02 0.000000e+00 0.000000e+00
7.553957e-02 0.000000e+00 0.000000e+00
1.007194e-01 0.000000e+00 0.000000e+00
1.258993e-01 0.000000e+00 0.000000e+00
1.510791e-01 0.000000e+00 0.000000e+00
1.762590e-01 0.000000e+00 0.000000e+00
2.014388e-01 0.000000e+00 0.000000e+00
2.266187e-01 0.000000e+00 0.000000e+00
2.517986e-01 0.000000e+00 0.000000e+00
2.769784e-01 0.000000e+00 0.000000e+00
3.021583e-01 0.000000e+00 0.000000e+00
3.273381e-01 0.000000e+00 0.000000e+00
3.525180e-01 0.000000e+00 0.000000e+00
3.776978e-01 0.000000e+00 0.000000e+00
4.028777e-01 0.000000e+00 0.000000e+00
4.280576e-01 0.000000e+00 0.000000e+00
4.532374e-01 0.000000e+00 0.000000e+00
4.784173e-01 0.000000e+00 0.000000e+00
5.035971e-01 0.000000e+00 0.000000e+00
5.287770e-01 0.000000e+00 0.000000e+00
5.539568e-01 0.000000e+00 0.000000e+00
5.791367e-01 0.000000e+00 0.000000e+00
6.043165e-01 0.000000e+00 0.000000e+00
6.294964e-01 0.000000e+00 0.000000e+00
6.546763e-01 0.000000e+00 0.000000e+00
6.798561e-01 0.000000e+00 0.000000e+00
7.050360e-01 0.000000e+00 0.000000e+00
7.302158e-01 0.000000e+00 0.000000e+00
7.553957e-01 0.000000e+00 0.000000e+00
7.805755e-01 0.000000e+00 0.000000e+00
8.057554e-01 0.000000e+00 0.000000e+00
8.309353e-01 0.000000e+00 0.000000e+00
8.561151e-01 0.000000e+00 0.000000e+00
8.812950e-01 0.000000e+00 0.000000e+00
9.064748e-01 0.000000e+00 0.000000e+00
9.316547e-01 0.000000e+00 0.000000e+00
9.568345e-01 0.000000e+00 0.000000e+00
9.820144e-01 0.000000e+00 0.000000e+00
1.007194e+00 0.000000e+00 0.000000e+00
1.032374e+00 0.000000e+00 0.000000e+00
1.057554e+00 0.000000e+00 0.000000e+00
1.082734e+00 0.000000e+00 0.000000e+00
1.107914e+00 0.000000e+00 0.000000e+00
1.133094e+00 0.000000e+00 0.000000e+00
1.158273e+00 0.000000e+00 0.000000e+00
1.183453e+00 0.000000e+00 0.000000e+00
1.208633e+00 0.000000e+00 0.000000e+00
1.233813e+00 0.000000e+00 0.000000e+00
1.258993e+00 0.000000e+00 0.000000e+00
1.284173e+00 0.000000e+00 0.000000e+00
1.309353e+00 0.000000e+00 0.000000e+00
1.334532e+00 0.000000e+00 0.000000e+00
1.359712e+00 0.000000e+00 0.000000e+00
1.384892e+00 0.000000e+00 0.000000e+00
1.410072e+00 0.000000e+00 0.000000e+00
1.435252e+00 0.000000e+00 0.000000e+00
1.460432e+00 0.000000e+00 0.000000e+00
1.485612e+00 0.000000e+00 0.000000e+00
1.510791e+00 0.000000e+00 0.000000e+00
1.535971e+00 0.000000e+00 0.000000e+00
1.561151e+00 0.000000e+00 0.000000e+00
1.586331e+00 0.000000e+00 0.000000e+00
1.611511e+00 0.000000e+00 0.000000e+00
1.636691e+00 0.000000e+00 0.000000e+00
1.661871e+00 0.000000e+00 0.000000e+00
1.687050e+00 0.000000e+00 0.000000e+00
1.712230e+00 0.000000e+00 0.000000e+00
1.737410e+00 0.000000e+00 0.000000e+00
1.762590e+00 0.000000e+00 0.000000e+00
1.787770e+00 0.000000e+00 0.000000e+00
1.812950e+00 0.000000e+00 0.000000e+00
1.838129e+00 0.000000e+00 0.000000e+00
1.863309e+00 0.000000e+00 0.000000e+00
1.888489e+00 0.000000e+00 0.000000e+00
1.913669e+00 0.000000e+00 0.000000e+00
1.938849e+00 0.000000e+00 0.000000e+00
1.964029e+00 0.000000e+00 0.000000e+00
1.989209e+00 0.000000e+00 0.000000e+00
2.014388e+00 0.000000e+00 0.000000e+00
2.039568e+00 0.000000e+00 0.000000e+00
2.064748e+00 0.000000e+00 0.000000e+00
2.089928e+00 0.000000e+00 0.000000e+00
2.115108e+00 0.000000e+00 0.000000e+00
2.140288e+00 0.000000e+00 0.000000e+00
2.165468e+00 0.000000e+00 0.000000e+00
2.190647e+00 0.000000e+00 0.000000e+00
2.215827e+00 0.000000e+00 0.000000e+00
2.241007e+00 0.000000e+00 0.000000e+00
2.266187e+00 0.000000e+00 0.000000e+00
2.291367e+00 0.000000e+00 0.000000e+00
2.316547e+00 0.000000e+00 0.000000e+00
2.341727e+00 0.000000e+00 0.000000e+00
2.366906e+00 0.000000e+00 0.000000e+00
2.392086e+00 0.000000e+00 0.000000e+00
2.417266e+00 0.000000e+00 0.000000e+00
2.442446e+00 0.000000e+00 0.000000e+00
2.467626e+00 0.000000e+00 0.000000e+00
2.492806e+00 0.000000e+00 0.000000e+00
2.517986e+00 0.000000e+00 0.000000e+00
2.543165e+00 0.000000e+00 0.000000e+00
2.568345e+00 0.000000e+00 0.000000e+00
2.593525e+00 0.000000e+00 0.000000e+00
2.618705e+00 0.000000e+00 0.000000e+00
2.643885e+00 0.000000e+00 0.000000e+00
2.669065e+00 0.000000e+00 0.000000e+00
2.694245e+00 0.000000e+00 0.000000e+00
2.719424e+00 0.000000e+00 0.000000e+00
2.744604e+00 0.000000e+00 0.000000e+00
2.769784e+00 0.000000e+00 0.000000e+00
2.794964e+00 0.000000e+00 0.000000e+00
2.820144e+00 0.000000e+00 0.000000e+00
2.845324e+00 0.000000e+00 0.000000e+00
2.870504e+00 0.000000e+00 0.000000e+00
2.895683e+00 0.000000e+00 0.000000e+00
2.920863e+00 0.000000e+00 0.000000e+00
2.946043e+00 0.000000e+00 0.000000e+00
2.971223e+00 0.000000e+00 0.000000e+00
2.996403e+00 0.000000e+00 0.000000e+00
3.021583e+00 0.000000e+00 0.000000e+00
3.046763e+00 0.000000e+00 0.000000e+00
3.071942e+00 0.000000e+00 0.000000e+00
3.097122e+00 0.000000e+00 0.000000e+00
3.122302e+00 0.000000e+00 0.000000e+00
3.147482e+00 0.000000e+00 0.000000e+00
3.172662e+00 0.000000e+00 0.000000e+00
3.197842e+00 0.000000e+00 0.000000e+00
3.223022e+00 0.000000e+00 0.000000e+00
3.248201e+00 0.000000e+00 0.000000e+00
3.273381e+00 0.000000e+00 0.000000e+00
3.298561e+00 0.000000e+00 0.000000e+00
3.323741e+00 0.000000e+00 0.000000e+00
3.348921e+00 0.000000e+00 0.000000e+00
3.374101e+00 0.000000e+00 0.000000e+00
3.399281e+00 0.000000e+00 0.000000e+00
3.424460e+00 0.000000e+00 0.000000e+00
3.449640e+00 0.000000e+00 0.000000e+00
3.474820e+00 0.000000e+00 0.000000e+00
3.500000e+00 0.000000e+00 0.000000e+00
0.000000e+00 1.694915e-02 0.000000e+00
2.517986e-02 1.694915e-02 0.000000e+00
5.035971e-02 1.694915e-02 0.000000e+00
7.553957e-02 1.694915e-02 0.000000e+00
1.007194e-01 1.694915e-02 0.000000e+00
1.258993e-01 1.694915e-02 0.000000e+00
1.510791e-01 1.694915e-02 0.000000e+00
1.762590e-01 1.694915e-02 0.000000e+00
2.014388e-01 1.694915e-02 0.000000e+00
2.266187e-01 1.694915e-02 0.000000e+00
2.517986e-01 1.694915e-02 0.000000e+00
2.769784e-01 1.694915e-02 0.000000e+00
3.021583e-01 1.694915e-02 0.000000e+00
3.273381e-01 1.694915e-02 0.000000e+00
3.525180e-01 1.694915e-02 0.000000e+00
3.776978e-01 1.694915e-02 0.000000e+00
4.028777e-01 1.694915e-02 0.000000e+00
4.280576e-01 1.694915e-02 0.000000e+00
4.532374e-01 1.694915e-02 0.000000e+00
4.784173e-01 1.694915e-02 0.000000e+00
5.035971e-01 1.694915e-02 0.000000e+00
5.287770e-01 1.694915e-02 0.000000e+00
5.539568e-01 1.694915e-02 0.000000e+00
5.791367e-01 1.694915e-02 0.000000e+00
6.043165e-01 1.694915e-02 0.000000e+00
6.294964e-01 1.694915e-02 0.000000e+00
6.546763e-01 1.694915e-02 0.000000e+00
6.798561e-01 1.694915e-02 0.000000e+00
7.050360e-01 1.694915e-02 0.000000e+00
7.302158e-01 1.694915e-02 0.000000e+00
7.553957e-01 1.694915e-02 0.000000e+00
7.805755e-01 1.694915e-02 0.000000e+00
8.057554e-01 1.694915e-02 0.000000e+00
8.309353e-01 1.694915e-02 0.000000e+00
8.561151e-01 1.694915e-02 0.000000e+00
8.812950e-01 1.694915e-02 0.000000e+00
9.064748e-01 1.694915e-02 0.000000e+00
9.316547e-01 1.694915e-02 0.000000e+00
9.568345e-01 1.694915e-02 0.000000e+00
9.820144e-01 1.694915e-02 0.000000e+00
1.007194e+00 1.694915e-02 0.000000e+00
1.032374e+00 1.694915e-02 0.000000e+00
1.057554e+00 1.694915e-02 0.000000e+00
1.082734e+00 1.694915e-02 0.000000e+00
1.107914e+00 1.694915e-02 0.000000e+00
1.133094e+00 1.694915e-02 0.000000e+00
1.158273e+00 1.694915e-02 0.000000e+00
1.183453e+00 1.694915e-02 0.000000e+00
1.208633e+00 1.694915e-02 0.000000e+00
1.233813e+00 1.694915e-02 0.000000e+00
1.258993e+00 1.694915e-02 0.000000e+00
1.284173e+00 1.694915e-02 0.000000e+00
1.309353e+00 1.694915e-02 0.000000e+00
1.334532e+00 1.694915e-02 0.000000e+00
1.359712e+00 1.694915e-02 0.000000e+00
1.384892e+00 1.694915e-02 0.000000e+00
1.410072e+00 1.694915e-02 0.000000e+00
1.435252e+00 1.694915e-02 0.000000e+00
1.460432e+00 1.694915e-02 0.000000e+00
1.485612e+00 1.694915e-02 0.000000e+00
1.510791e+00 1.694915e-02 0.000000e+00
1.535971e+00 1.694915e-02 0.000000e+00
1.561151e+00 1.694915e-02 0.000000e+00
1.586331e+00 1.694915e-02 0.000000e+00
1.611511e+00 1.694915e-02 0.000000e+00
1.636691e+00 1.694915e-02 0.000000e+00
1.661871e+00 1.694915e-02 0.000000e+00
1.687050e+00 1.694915e-02 0.000000e+00
1.712230e+00 1.694915e-02 0.000000e+00
1.737410e+00 1.694915e-02 0.000000e+00
1.762590e+00 1.694915e-02 0.000000e+00
1.787770e+00 1.694915e-02 0.000000e+00
1.812950e+00 1.694915e-02 0.000000e+00
1.838129e+00 1.694915e-02 0.000000e+00
1.863309e+00 1.694915e-02 0.000000e+00
1.888489e+00 1.694915e-02 0.000000e+00
1.913669e+00 1.694915e-02 0.000000e+00
1.938849e+00 1.694915e-02 0.000000e+00
1.964029e+00 1.694915e-02 0.000000e+00
1.989209e+00 1.694915e-02 0.000000e+00
2.014388e+00 1.694915e-02 0.000000e+00
2.039568e+00 1.694915e-02 0.000000e+00
2.064748e+00 1.694915e-02 0.000000e+00
2.089928e+00 1.694915e-02 0.000000e+00
2.115108e+00 1.694915e-02 0.000000e+00
2.140288e+00 1.694915e-02 0.000000e+00
2.165468e+00 1.694915e-02 0.000000e+00
2.190647e+00 1.694915e-02 0.000000e+00
2.215827e+00 1.694915e-02 0.000000e+00
2.241007e+00 1.694915e-02 0.000000e+00
2.266187e+00 1.694915e-02 0.000000e+00
2.291367e+00 1.694915e-02 0.000000e+00
2.316547e+00 1.694915e-02 0.000000e+00
2.341727e+00 1.694915e-02 0.000000e+00
2.366906e+00 1.694915e-02 0.000000e+00
2.392086e+00 1.694915e-02 0.000000e+00
2.417266e+00 1.694915e-02 0.000000e+00
2.442446e+00 1.694915e-02 0.000000e+00
2.467626e+00 1.694915e-02 0.000000e+00
2.492806e+00 1.694915e-02 0.000000e+00
2.517986e+00 1.694915e-02 0.000000e+00
2.543165e+00 1.694915e-02 0.000000e+00
2.568345e+00 1.694915e-02 0.000000e+00
2.593525e+00 1.694915e-02 0.000000e+00
2.618705e+00 1.694915e-02 0.000000e+00
2.643885e+00 1.694915e-02 0.000000e+00
2.669065e+00 1.694915e-02 0.000000e+00
2.694245e+00 1.694915e-02 0.000000e+00
2.719424e+00 1.694915e-02 0.000000e+00
2.744604e+00 1.694915e-02 0.000000e+00
2.769784e+00 1.694915e-02 0.000000e+00
2.794964e+00 1.694915e-02 0.000000e+00
2.820144e+00 1.694915e-02 0.000000e+00
[...]
POINT_DATA 8400
SCALARS RES_Cont double
LOOKUP_TABLE default
0.000000e+00
0.000000e+00
0.000000e+00
0.000000e+00
0.000000e+00
0.000000e+00
0.000000e+00
0.000000e+00
0.000000e+00
0.000000e+00
0.000000e+00
0.000000e+00
0.000000e+00
0.000000e+00
0.000000e+00
0.000000e+00
0.000000e+00
0.000000e+00
0.000000e+00
0.000000e+00
0.000000e+00
0.000000e+00
0.000000e+00
0.000000e+00
0.000000e+00
0.000000e+00
0.000000e+00
0.000000e+00
0.000000e+00
0.000000e+00
0.000000e+00
0.000000e+00
0.000000e+00
0.000000e+00
0.000000e+00
0.000000e+00
0.000000e+00
0.000000e+00
0.000000e+00
0.000000e+00
0.000000e+00
0.000000e+00
0.000000e+00
0.000000e+00
0.000000e+00
0.000000e+00
0.000000e+00
0.000000e+00
0.000000e+00
0.000000e+00
0.000000e+00
0.000000e+00
0.000000e+00
0.000000e+00
0.000000e+00
0.000000e+00
0.000000e+00
0.000000e+00
0.000000e+00
0.000000e+00
0.000000e+00
0.000000e+00
0.000000e+00
0.000000e+00
0.000000e+00
0.000000e+00
0.000000e+00
0.000000e+00
0.000000e+00
0.000000e+00
0.000000e+00
0.000000e+00
0.000000e+00
0.000000e+00
0.000000e+00
0.000000e+00
0.000000e+00
0.000000e+00
0.000000e+00
0.000000e+00
0.000000e+00
0.000000e+00
0.000000e+00
0.000000e+00
0.000000e+00
0.000000e+00
0.000000e+00
0.000000e+00
0.000000e+00
0.000000e+00
0.000000e+00
0.000000e+00
0.000000e+00
0.000000e+00
0.000000e+00
0.000000e+00
0.000000e+00
0.000000e+00
0.000000e+00
0.000000e+00
0.000000e+00
0.000000e+00
0.000000e+00
0.000000e+00
0.000000e+00
0.000000e+00
0.000000e+00
0.000000e+00
0.000000e+00
0.000000e+00
0.000000e+00
0.000000e+00
0.000000e+00
0.000000e+00
0.000000e+00
0.000000e+00
0.000000e+00
0.000000e+00
0.000000e+00
0.000000e+00
0.000000e+00
0.000000e+00
0.000000e+00
0.000000e+00
0.000000e+00
0.000000e+00
0.000000e+00
0.000000e+00
0.000000e+00
0.000000e+00
0.000000e+00
0.000000e+00
0.000000e+00
0.000000e+00
0.000000e+00
0.000000e+00
0.000000e+00
0.000000e+00
0.000000e+00
0.000000e+00
0.000000e+00
-0.000000e+00
-0.000000e+00
-0.000000e+00
-0.000000e+00
-0.000000e+00
-0.000000e+00
3.951571e-19
-2.766100e-18
2.082467e-18
2.280046e-18
-4.179766e-18
7.142492e-19
2.416391e-18
2.578590e-19
1.793992e-18
-1.484016e-18
-2.249020e-18
-5.253776e-19
1.909380e-18
3.100927e-19
4.132212e-18
-7.431019e-19
1.456216e-18
-3.120889e-18
3.624877e-19
4.338613e-18
-2.664903e-18
-8.283298e-19
1.747706e-18
2.059500e-18
-2.373046e-18
-1.608582e-18
3.644665e-18
4.348978e-18
6.850600e-20
-7.551075e-19
2.135495e-18
4.542930e-18
9.264816e-19
2.783673e-18
1.814293e-18
-2.115780e-18
1.657683e-18
1.176758e-18
1.045381e-18
-1.050879e-19
-2.772364e-18
3.295152e-19
3.329096e-18
-5.283099e-19
-2.030727e-18
-2.393138e-18
-1.810037e-18
2.034414e-19
-1.839754e-19
-4.314859e-18
-3.954730e-18
2.302101e-19
-2.034228e-19
9.242832e-19
1.681509e-18
2.640308e-18
1.081102e-17
-6.700144e-19
4.282578e-18
4.271930e-18
8.304932e-18
3.938992e-18
-1.503621e-17
1.747975e-18
1.910348e-17
2.021764e-17
-1.571616e-17
9.989070e-18
1.188190e-17
-1.191455e-17
-3.019218e-17
-2.528166e-17
5.617902e-18
-2.357074e-17
1.207914e-17
1.149942e-17
3.200597e-17
3.827202e-17
3.132006e-18
-7.201077e-18
5.256035e-18
-1.860898e-17
3.186845e-18
9.999707e-18
4.409125e-18
4.228910e-17
-1.357492e-17
-4.357080e-17
-4.826002e-17
-3.815876e-18
1.522200e-17
4.889880e-17
-4.289691e-18
7.582728e-19
1.655188e-18
-2.941574e-18
-1.008187e-17
9.230174e-18
3.019891e-17
1.768312e-16
5.313174e-16
1.425218e-15
3.748332e-15
9.796029e-15
2.495184e-14
6.234671e-14
1.525628e-13
3.656794e-13
8.587618e-13
1.976946e-12
4.461984e-12
9.874856e-12
2.143160e-11
4.561809e-11
9.523625e-11
1.950144e-10
3.916859e-10
7.716457e-10
1.491087e-09
2.826088e-09
5.253572e-09
9.578456e-09
1.712732e-08
3.003401e-08
5.164604e-08
8.708091e-08
1.439539e-07
2.332810e-07
3.705266e-07
5.767115e-07
8.794252e-07
1.313500e-06
0.000000e+00
0.000000e+00
-0.000000e+00
-0.000000e+00
-0.000000e+00
-0.000000e+00
-0.000000e+00
3.951571e-19
-5.927357e-19
1.778207e-18
7.903142e-19
-3.769777e-18
-2.280046e-18
5.289172e-18
1.580628e-18
-2.339373e-18
-1.059195e-18
-1.647168e-18
3.473138e-18
-1.936871e-18
-2.948863e-18
-2.651847e-18
-1.188830e-18
-2.499037e-19
-1.506236e-18
1.050624e-18
-3.108179e-19
-1.920235e-18
-4.955105e-19
3.761654e-19
3.671948e-19
-4.936463e-18
-1.155415e-18
2.455278e-19
5.316550e-19
2.620430e-18
1.400238e-18
-2.107697e-18
-1.159894e-18
-3.314508e-18
1.882661e-18
4.323399e-18
2.211716e-18
8.413603e-19
2.553488e-18
-3.045151e-18
5.722111e-19
3.038370e-18
-1.181964e-18
2.589611e-18
4.312713e-18
2.907169e-19
-5.268920e-18
1.287828e-18
4.355161e-19
3.892975e-20
-3.491898e-18
3.971504e-18
3.847528e-18
3.554585e-18
-2.304075e-18
8.688719e-18
2.130746e-17
1.593198e-17
1.071716e-18
-1.263260e-17
-2.447227e-17
-7.681523e-18
1.281525e-18
7.319299e-18
1.310164e-17
-1.018198e-17
4.353900e-18
1.222291e-17
-1.169567e-17
-1.461128e-17
9.912289e-18
8.359697e-18
-3.137908e-17
2.305752e-17
-1.397019e-17
8.630105e-19
4.616533e-18
2.087477e-17
2.189800e-17
5.760042e-18
1.527054e-17
-1.254260e-17
-3.645520e-18
-2.278082e-18
1.738543e-17
9.044179e-18
3.923812e-18
1.009180e-18
-7.533522e-18
-1.275201e-17
-1.678422e-17
2.147495e-17
2.997170e-17
-1.749681e-18
3.480807e-17
1.721864e-17
1.507775e-17
-2.905014e-19
4.806407e-18
9.528544e-18
5.298725e-17
1.661043e-16
5.097158e-16
1.409626e-15
3.742666e-15
9.730813e-15
2.482219e-14
6.200030e-14
1.517043e-13
3.636570e-13
8.542627e-13
1.966918e-12
4.440103e-12
9.827744e-12
2.133163e-11
4.540908e-11
9.480642e-11
1.941457e-10
3.899628e-10
7.682968e-10
1.484718e-09
2.814248e-09
5.232078e-09
9.540374e-09
1.706148e-08
2.992291e-08
5.146299e-08
8.678615e-08
1.434896e-07
2.325648e-07
3.694436e-07
5.751042e-07
8.770826e-07
1.310146e-06
0.000000e+00
0.000000e+00
-0.000000e+00
-0.000000e+00
-0.000000e+00
-0.000000e+00
-0.000000e+00
-7.903142e-19
3.860674e-18
3.465517e-18
-2.281951e-19
-2.447008e-18
1.018509e-18
1.018509e-18
-3.236369e-18
-1.516538e-18
-5.389186e-18
-1.852367e-18
1.842022e-18
-4.875665e-19
-2.390579e-18
3.065664e-18
1.190351e-18
1.120886e-18
2.665746e-18
3.300521e-18
-3.529972e-19
-4.207158e-18
-5.929693e-18
5.118775e-18
2.466719e-18
3.959792e-18
4.709713e-18
5.189744e-18
3.222058e-18
-2.610998e-18
-1.764448e-18
-9.355178e-19
5.440567e-18
3.837747e-18
1.958387e-18
2.584192e-20
6.370335e-19
-1.623852e-18
-1.395307e-19
3.674484e-18
5.930178e-18
1.353877e-18
7.435956e-19
2.764005e-18
-5.091109e-18
-2.576697e-18
-3.233387e-18
-3.497627e-18
8.857530e-19
-1.902906e-18
7.360271e-18
3.504704e-18
4.740078e-18
1.353706e-17
6.525377e-18
1.208830e-17
1.950519e-17
2.327731e-17
-5.510520e-18
-1.601898e-17
-1.110584e-17
-1.325965e-17
-1.468885e-17
2.630648e-18
9.543398e-18
8.266442e-18
-1.986571e-18
8.949280e-19
-3.703334e-18
1.863001e-17
-3.928112e-18
-3.947410e-17
4.479365e-18
1.654953e-17
9.760035e-18
6.321660e-18
1.295102e-17
4.767914e-18
-2.500822e-18
1.123507e-17
1.313775e-17
3.481865e-18
2.256171e-17
-2.569154e-17
-1.042111e-17
-1.415666e-17
-3.760648e-17
-3.495000e-17
1.196113e-17
-6.130387e-18
4.624297e-18
2.622633e-17
4.770666e-17
1.657590e-17
-2.526432e-17
-2.212455e-17
2.931500e-17
6.286058e-18
2.779118e-17
4.261140e-17
4.880683e-17
1.504533e-16
4.766577e-16
1.404001e-15
3.689911e-15
9.609442e-15
2.457835e-14
6.139830e-14
1.502212e-13
3.602326e-13
8.464402e-13
1.949605e-12
4.402270e-12
9.746380e-12
2.115923e-11
4.504958e-11
9.406905e-11
1.926598e-10
3.870253e-10
7.626063e-10
1.473930e-09
2.794253e-09
5.195879e-09
9.476386e-09
1.695107e-08
2.973688e-08
5.115682e-08
8.629360e-08
1.427143e-07
2.313698e-07
3.676377e-07
5.724269e-07
8.731861e-07
1.304578e-06
0.000000e+00
0.000000e+00
-0.000000e+00
-0.000000e+00
-0.000000e+00
-0.000000e+00
3.951571e-19
-1.778207e-18
5.018387e-19
-7.903142e-19
-1.702142e-18
-2.492456e-18
7.754822e-19
-2.369990e-18
-3.052670e-18
4.274473e-18
3.250249e-18
1.704966e-19
5.714947e-19
2.361383e-18
4.102155e-18
1.042750e-18
-2.586798e-18
5.816246e-19
2.385772e-19
-1.857188e-18
6.896002e-19
1.203048e-18
-3.231563e-18
1.492603e-18
5.820715e-18
4.718660e-19
1.205540e-18
3.350016e-18
1.247173e-18
-3.827433e-18
-3.681831e-18
1.212710e-18
-2.884406e-19
1.684053e-18
6.744768e-19
4.423721e-19
-2.615674e-18
-1.356711e-18
-2.155520e-19
-2.109500e-18
-1.314699e-18
-2.303951e-18
1.166268e-18
-2.198590e-18
-1.952356e-18
3.230250e-18
5.981815e-19
-1.120164e-18
-1.925499e-20
-2.524845e-18
-5.419064e-19
1.295962e-18
7.133825e-18
4.770319e-18
2.847941e-18
1.648251e-18
9.694815e-18
-3.529702e-18
-1.739933e-17
-1.485072e-17
-6.423691e-19
-6.065585e-18
-7.916545e-18
-1.290167e-17
2.198031e-17
2.549600e-17
-5.595317e-18
-2.340708e-17
-3.408696e-17
1.840038e-18
1.431235e-17
2.405201e-17
1.056259e-17
1.186671e-17
-2.670848e-18
8.447186e-18
8.163429e-18
-2.458465e-17
-5.514389e-18
9.055651e-19
-3.267424e-18
1.332155e-17
-2.616360e-18
-5.808874e-18
-1.036305e-17
-2.519077e-17
-5.794291e-17
-2.392658e-17
1.193326e-17
2.695297e-17
1.955835e-17
7.342272e-17
2.093388e-17
-3.753408e-17
-5.982162e-18
4.054107e-19
1.292910e-17
1.459588e-17
3.956633e-17
4.887158e-17
6.151756e-17
1.390888e-16
4.792689e-16
1.353843e-15
3.622678e-15
9.472214e-15
2.419709e-14
6.048036e-14
1.480756e-13
3.551873e-13
8.350873e-13
1.924419e-12
4.347240e-12
9.627958e-12
2.090874e-11
4.452808e-11
9.300179e-11
1.905147e-10
3.827953e-10
7.544320e-10
1.458467e-09
2.765646e-09
5.144154e-09
9.385025e-09
1.679346e-08
2.947129e-08
5.071950e-08
8.558955e-08
1.416053e-07
2.296592e-07
3.650520e-07
5.685938e-07
8.676112e-07
1.296622e-06
0.000000e+00
0.000000e+00
-0.000000e+00
-0.000000e+00
-0.000000e+00
-0.000000e+00
-1.383050e-18
5.927357e-19
-4.362513e-18
-4.255831e-18
-1.732758e-18
-1.383050e-18
-4.544850e-20
-2.567569e-18
1.020414e-18
6.649903e-19
-1.634516e-18
4.931968e-18
-2.904785e-18
-1.327021e-19
1.485018e-18
8.938437e-19
2.063970e-19
-4.175373e-19
-1.643661e-18
3.185353e-19
1.535274e-19
1.144770e-18
8.446847e-19
4.251063e-18
4.952511e-18
2.458914e-18
-1.541644e-18
-3.057250e-18
3.682130e-18
-2.767742e-18
-4.610796e-18
-2.240880e-18
-3.420474e-18
-1.124593e-18
-3.091988e-18
-4.054487e-18
6.282641e-19
3.336622e-18
-2.427242e-18
-4.333694e-18
-2.706263e-18
-3.914212e-18
-3.740818e-18
1.305409e-18
4.693737e-18
2.077516e-18
3.559731e-18
2.531597e-18
1.691036e-19
-5.443127e-18
-2.903417e-18
-5.224982e-19
-1.112230e-18
2.553110e-18
-1.983074e-18
3.962637e-18
6.842775e-18
-5.815579e-18
-1.018786e-17
4.290316e-18
1.173483e-17
-4.410733e-18
-1.381509e-17
-1.466406e-17
1.515365e-17
5.065863e-18
9.812373e-18
-9.606963e-18
-4.192746e-17
-1.517089e-17
-2.120067e-17
1.549619e-17
4.003867e-17
1.064382e-17
2.117335e-17
1.297391e-17
3.571290e-17
-1.001968e-17
-2.153759e-17
4.983304e-18
-1.778980e-18
-1.119890e-17
2.097923e-17
4.377971e-18
-2.334211e-17
-1.606843e-17
-1.499602e-17
-5.125746e-17
9.434416e-18
2.087522e-17
5.352707e-17
4.956010e-17
1.311352e-17
-2.507437e-17
-4.479195e-17
1.030960e-17
1.314558e-17
2.241617e-17
2.910860e-17
3.586459e-18
6.897963e-17
2.047380e-16
4.631338e-16
1.300980e-15
3.548511e-15
9.251841e-15
2.367744e-14
5.927159e-14
1.451975e-13
3.485651e-13
8.200660e-13
1.891001e-12
4.274143e-12
9.470856e-12
2.057654e-11
4.383775e-11
9.159201e-11
1.876877e-10
3.772342e-10
7.437100e-10
1.438223e-09
2.728247e-09
5.076589e-09
9.265715e-09
1.658756e-08
2.912404e-08
5.014702e-08
8.466662e-08
1.401495e-07
2.274110e-07
3.616508e-07
5.635508e-07
8.602801e-07
1.286172e-06
0.000000e+00
0.000000e+00
-0.000000e+00
-0.000000e+00
-0.000000e+00
1.975786e-19
1.975786e-18
-3.572198e-18
-2.477624e-18
1.930337e-18
-4.741885e-18
-5.046145e-18
-4.437625e-18
1.337601e-18
9.673453e-19
1.380326e-18
1.162058e-18
-4.197339e-18
-1.634434e-20
-2.966194e-18
-2.020985e-18
-1.954558e-18
-3.967699e-18
-1.109388e-18
-2.578344e-18
1.346780e-18
3.157404e-18
-3.385715e-19
4.692545e-19
-4.188508e-19
8.782061e-19
1.340561e-18
9.292433e-20
-6.229246e-19
-2.974289e-18
-1.365804e-18
-4.535923e-18
8.606943e-19
-4.435968e-19
8.570369e-19
-3.930951e-18
3.033806e-18
3.944125e-18
-1.768904e-18
1.700581e-18
-3.954969e-18
-3.480651e-18
2.447347e-18
-4.661341e-18
6.420092e-18
-9.573381e-19
4.743493e-18
4.453706e-19
-1.226415e-18
-6.453607e-18
-7.702461e-18
-3.235616e-18
-1.072075e-18
-6.597158e-18
-9.833734e-18
-1.547110e-17
-1.229027e-17
9.067454e-19
1.440956e-17
9.889955e-18
1.090134e-17
-9.729630e-18
-2.008226e-18
-1.699298e-17
3.752733e-18
-4.169008e-18
2.459797e-18
-6.417972e-18
1.040599e-17
-1.567082e-18
-3.157803e-17
-1.709019e-17
1.868461e-18
2.228902e-17
2.780767e-17
-1.274288e-17
-2.244829e-19
4.516591e-18
3.056226e-17
-4.623815e-18
-1.744996e-17
3.346980e-18
-2.064931e-17
-1.578501e-18
9.221730e-18
1.740238e-17
-1.525481e-18
-2.059227e-17
-1.861605e-17
-1.676034e-17
1.159818e-17
4.962786e-17
1.398406e-17
-3.404511e-17
-2.555607e-17
-2.551518e-17
-2.410581e-17
2.854610e-17
5.194989e-18
9.707493e-18
2.402156e-17
6.046343e-17
1.990125e-16
4.873029e-16
1.275117e-15
3.430344e-15
9.025866e-15
2.303712e-14
5.773766e-14
1.415916e-13
3.402707e-13
8.012933e-13
1.849138e-12
4.182585e-12
9.274072e-12
2.016089e-11
4.297516e-11
8.983390e-11
1.841703e-10
3.703306e-10
7.304275e-10
1.413189e-09
2.682054e-09
4.993190e-09
9.118438e-09
1.633324e-08
2.869462e-08
4.943799e-08
8.352157e-08
1.383402e-07
2.246127e-07
3.574132e-07
5.572649e-07
8.511452e-07
1.273166e-06
0.000000e+00
0.000000e+00
-0.000000e+00
-0.000000e+00
-0.000000e+00
-5.927357e-19
1.094574e-18
-3.556414e-18
4.712221e-19
3.723376e-18
1.139070e-18
2.856997e-18
1.276368e-18
9.376813e-19
-3.161006e-19
2.466051e-18
-5.488397e-18
-1.327808e-18
-2.137768e-18
2.070610e-19
-4.688545e-18
-4.249663e-18
-4.145058e-18
3.228383e-18
3.128144e-18
-2.394108e-18
-4.161122e-18
-2.418186e-18
-4.204551e-18
-4.530236e-18
-3.162331e-18
-5.917167e-18
-7.042314e-19
9.027059e-19
4.279492e-18
1.038692e-18
1.882856e-18
2.715539e-18
1.354067e-18
-5.213024e-19
3.757392e-18
4.514792e-18
6.278711e-19
-3.023902e-18
2.961375e-18
-2.131089e-18
4.160473e-18
2.714949e-18
2.078726e-18
-1.455468e-18
-7.551371e-19
-2.782710e-18
5.664094e-18
-2.611941e-19
-6.363097e-19
-1.366661e-18
5.286876e-18
-1.333470e-18
-1.339536e-19
-3.210925e-18
-6.195830e-18
-1.282512e-17
-8.546140e-18
1.724437e-18
1.837430e-17
1.684675e-17
-1.016470e-17
-1.410622e-17
-9.688101e-18
2.702007e-17
2.235512e-19
-6.633013e-19
6.609236e-18
-9.944956e-18
1.203364e-17
-6.250195e-18
-7.679272e-20
-2.512255e-18
-1.785440e-18
9.813929e-18
3.874710e-18
-1.196938e-17
-8.953007e-19
1.349946e-17
3.046045e-17
4.841327e-18
-2.156279e-17
-1.125107e-17
-1.266174e-17
-5.905963e-18
2.757128e-17
3.555248e-17
3.005566e-17
-2.401848e-18
-3.109435e-18
1.911438e-17
2.553572e-17
-2.928714e-18
2.116203e-17
-2.070419e-17
-3.065943e-17
-3.274509e-17
-1.129828e-17
1.426106e-17
2.230860e-17
1.864443e-17
7.401885e-17
1.684877e-16
4.714552e-16
1.190763e-15
3.304350e-15
8.697591e-15
2.233718e-14
5.592728e-14
1.373192e-13
3.303454e-13
7.787877e-13
1.798915e-12
4.072605e-12
9.037631e-12
1.966177e-11
4.194055e-11
8.772867e-11
1.799664e-10
3.620962e-10
7.146137e-10
1.383428e-09
2.627196e-09
4.894191e-09
8.943581e-09
1.603105e-08
2.818372e-08
4.859302e-08
8.215441e-08
1.361759e-07
2.212599e-07
3.523295e-07
5.497194e-07
8.401811e-07
1.257570e-06
0.000000e+00
0.000000e+00
-0.000000e+00
-0.000000e+00
-0.000000e+00
-2.173364e-18
3.951571e-18
2.370943e-18
1.975786e-19
-4.255831e-18
-2.477624e-18
2.385775e-18
2.032256e-18
9.521038e-19
-3.527435e-18
1.064902e-18
-4.188298e-19
-2.797176e-18
-2.440564e-19
-1.517235e-18
-3.029095e-18
-1.894020e-18
2.821182e-18
3.791005e-18
-6.564316e-18
-2.459873e-18
-4.308280e-18
4.557053e-18
-1.985333e-18
-4.638606e-18
-9.120768e-19
4.975771e-19
-2.765737e-18
9.192032e-19
6.883576e-19
2.627138e-18
-1.335061e-18
4.835808e-18
-2.293985e-19
2.849818e-18
-1.925657e-18
7.895546e-19
-4.253612e-18
-6.331304e-20
-3.684723e-19
5.598162e-18
1.678909e-18
1.126039e-18
-3.348778e-20
-4.332384e-18
8.371515e-19
-1.945723e-18
-4.919224e-18
3.884975e-19
-4.421768e-19
3.832935e-18
2.058406e-17
7.874961e-18
3.958691e-18
9.289733e-18
1.478058e-17
1.069540e-18
-2.118510e-17
-1.711632e-17
-3.132298e-17
-1.542933e-17
-3.311814e-18
-1.111416e-17
-1.012325e-17
2.807895e-18
-4.363338e-18
-1.106681e-17
3.092407e-18
1.691255e-17
4.629282e-18
1.360107e-17
-4.718625e-18
1.458981e-17
5.361037e-18
-1.604718e-18
6.051986e-18
4.069516e-18
-1.502549e-17
-7.258925e-19
5.829417e-18
-2.030408e-18
1.135682e-18
5.052825e-18
-2.406106e-18
5.152438e-18
1.683069e-17
4.670300e-17
4.180768e-18
-4.277220e-18
-1.719825e-17
-1.513818e-17
1.650896e-17
1.838759e-19
-5.053451e-18
-1.940477e-17
-3.600521e-17
-2.856717e-17
1.202369e-18
1.881361e-17
-8.879382e-18
-4.142571e-18
7.938420e-17
2.018679e-16
4.133209e-16
1.163372e-15
3.173436e-15
8.369769e-15
2.141325e-14
5.383773e-14
1.323562e-13
3.189098e-13
7.526047e-13
1.740488e-12
3.944590e-12
8.762389e-12
1.908098e-11
4.073772e-11
8.528412e-11
1.750923e-10
3.525640e-10
6.963348e-10
1.349070e-09
2.563914e-09
4.780015e-09
8.741855e-09
1.568213e-08
2.759300e-08
4.761434e-08
8.056784e-08
1.336594e-07
2.173545e-07
3.463997e-07
5.409107e-07
8.273794e-07
1.239371e-06
0.000000e+00
0.000000e+00
-0.000000e+00
3.951571e-19
-1.975786e-19
9.089700e-20
2.173364e-18
-3.541582e-18
-1.565796e-18
-2.523073e-18
-7.903142e-19
-2.616827e-18
4.120029e-18
3.879993e-18
-1.532055e-18
-2.741734e-18
-5.317667e-18
8.663946e-19
1.057796e-18
4.711190e-18
5.310376e-18
4.684933e-18
2.252990e-18
4.022805e-19
-4.373243e-19
2.706694e-18
1.158522e-18
-2.549784e-18
2.831140e-18
4.023799e-19
2.615466e-19
5.282424e-18
4.184201e-18
2.200026e-18
-3.297347e-19
-1.356908e-18
5.362084e-19
7.713921e-19
4.088948e-18
2.585368e-19
-9.897099e-19
-1.046731e-18
6.345435e-19
-2.753864e-18
8.041335e-19
5.847353e-19
-5.489954e-19
1.529548e-18
1.128505e-18
-4.398367e-18
-3.501972e-18
2.076225e-19
-1.373192e-18
3.845788e-18
-2.050527e-18
-3.229425e-18
-6.427068e-18
-1.358255e-17
-4.909823e-18
1.487898e-17
2.121029e-17
1.864861e-17
-2.201085e-18
1.491212e-17
-3.535697e-17
-4.345466e-17
-5.429952e-18
-2.572208e-18
1.751571e-17
-5.169479e-18
-1.226093e-17
-7.039945e-18
-4.192194e-18
2.827753e-17
6.674877e-18
-2.014971e-17
8.414391e-19
-2.169591e-17
-6.412196e-18
1.788444e-17
-1.573189e-17
-5.956972e-18
7.527902e-19
-5.267164e-18
-1.820796e-17
-6.595939e-18
-7.977430e-18
-1.900762e-17
-2.226553e-17
1.095618e-17
7.320954e-17
5.283150e-17
-4.867737e-18
5.513520e-18
-1.837944e-17
-3.275974e-17
-3.806844e-17
-6.230172e-19
1.608883e-18
1.342922e-17
-5.071079e-18
-1.109369e-17
-1.574467e-17
-2.469093e-17
-1.096464e-17
9.132174e-18
6.477982e-17
1.878075e-16
4.119686e-16
1.116082e-15
3.001746e-15
7.949441e-15
2.044689e-14
5.147817e-14
1.267918e-13
3.058885e-13
7.230081e-13
1.674305e-12
3.799452e-12
8.450145e-12
1.842211e-11
3.937367e-11
8.251411e-11
1.695748e-10
3.417858e-10
6.756879e-10
1.310293e-09
2.492526e-09
4.651222e-09
8.514205e-09
1.528800e-08
2.692484e-08
4.650546e-08
7.876674e-08
1.307969e-07
2.129040e-07
3.396319e-07
5.308460e-07
8.127450e-07
1.218570e-06
0.000000e+00
0.000000e+00
-0.000000e+00
-1.185471e-18
9.878928e-19
1.383050e-18
-2.884755e-19
1.185471e-18
-1.306985e-18
-2.599138e-18
-1.688672e-19
2.726910e-18
3.181938e-18
-2.379925e-18
-7.058013e-19
1.082809e-18
4.843226e-18
-2.623957e-18
-5.200868e-18
-1.486190e-18
-6.453578e-19
4.187716e-18
2.114603e-18
2.232188e-18
3.836054e-18
1.511615e-18
-3.223917e-18
4.140432e-18
4.356489e-18
2.230004e-18
3.441297e-18
-8.577027e-19
3.371942e-18
-3.335797e-19
-3.929238e-18
1.333178e-18
-2.210808e-18
-2.479162e-18
-4.876800e-18
-2.451255e-18
1.399479e-18
1.834196e-18
3.588870e-18
2.804214e-18
-1.784738e-18
2.266720e-18
-1.532052e-19
2.854729e-18
-4.768362e-18
-2.045983e-18
-1.476833e-18
2.565638e-18
3.738767e-18
-2.445906e-18
3.711453e-18
8.567136e-19
-7.483290e-19
-1.963231e-17
-7.148639e-18
5.581353e-18
4.786009e-18
1.765883e-18
-2.229290e-19
1.928342e-17
5.097264e-18
-2.490479e-18
-1.632450e-17
-3.100498e-18
2.544156e-17
1.240594e-17
-2.261792e-18
-2.090401e-17
-4.161991e-18
1.432973e-17
3.726933e-18
-1.675158e-17
-1.308817e-17
-2.345281e-17
-1.751525e-17
-1.411158e-17
5.708615e-18
-1.533844e-17
-7.718078e-18
1.132490e-17
9.894917e-18
4.068620e-18
-9.680754e-18
-2.441038e-17
-2.028053e-17
2.780603e-17
4.475965e-17
4.782374e-17
6.037258e-19
1.953164e-18
-3.238577e-18