# vtk DataFile Version 3.0
Resultado Projeto 3
ASCII
DATASET STRUCTURED_GRID
DIMENSIONS 140 60 1 
POINTS 8400 double
0.000000e+00 0.000000e+00 0.000000e+00
2.517986e-02 0.000000e+00 0.000000e+00
5.035971e-02 0.000000e+00 0.000000e+00
7.553957e-02 0.000000e+00 0.000000e+00
1.007194e-01 0.000000e+00 0.000000e+00
1.258993e-01 0.000000e+00 0.000000e+00
1.510791e-01 0.000000e+00 0.000000e+00
1.762590e-01 0.000000e+00 0.000000e+00
2.014388e-01 0.000000e+00 0.000000e+00
2.266187e-01 0.000000e+00 0.000000e+00
2.517986e-01 0.000000e+00 0.000000e+00
2.769784e-01 0.000000e+00 0.000000e+00
3.021583e-01 0.000000e+00 0.000000e+00
3.273381e-01 0.000000e+00 0.000000e+00
3.525180e-01 0.000000e+00 0.000000e+00
3.776978e-01 0.000000e+00 0.000000e+00
4.028777e-01 0.000000e+00 0.000000e+00
4.280576e-01 0.000000e+00 0.000000e+00
4.532374e-01 0.000000e+00 0.000000e+00
4.784173e-01 0.000000e+00 0.000000e+00
5.035971e-01 0.000000e+00 0.000000e+00
5.287770e-01 0.000000e+00 0.000000e+00
5.539568e-01 0.000000e+00 0.000000e+00
5.791367e-01 0.000000e+00 0.000000e+00
6.043165e-01 0.000000e+00 0.000000e+00
6.294964e-01 0.000000e+00 0.000000e+00
6.546763e-01 0.000000e+00 0.000000e+00
6.798561e-01 0.000000e+00 0.000000e+00
7.050360e-01 0.000000e+00 0.000000e+00
7.302158e-01 0.000000e+00 0.000000e+00
7.553957e-01 0.000000e+00 0.000000e+00
7.805755e-01 0.000000e+00 0.000000e+00
8.057554e-01 0.000000e+00 0.000000e+00
8.309353e-01 0.000000e+00 0.000000e+00
8.561151e-01 0.000000e+00 0.000000e+00
8.812950e-01 0.000000e+00 0.000000e+00
9.064748e-01 0.000000e+00 0.000000e+00
9.316547e-01 0.000000e+00 0.000000e+00
9.568345e-01 0.000000e+00 0.000000e+00
9.820144e-01 0.000000e+00 0.000000e+00
1.007194e+00 0.000000e+00 0.000000e+00
1.032374e+00 0.000000e+00 0.000000e+00
1.057554e+00 0.000000e+00 0.000000e+00
1.082734e+00 0.000000e+00 0.000000e+00
1.107914e+00 0.000000e+00 0.000000e+00
1.133094e+00 0.000000e+00 0.000000e+00
1.158273e+00 0.000000e+00 0.000000e+00
1.183453e+00 0.000000e+00 0.000000e+00
1.208633e+00 0.000000e+00 0.000000e+00
1.233813e+00 0.000000e+00 0.000000e+00
1.258993e+00 0.000000e+00 0.000000e+00
1.284173e+00 0.000000e+00 0.000000e+00
1.309353e+00 0.000000e+00 0.000000e+00
1.334532e+00 0.000000e+00 0.000000e+00
1.359712e+00 0.000000e+00 0.000000e+00
1.384892e+00 0.000000e+00 0.000000e+00
1.410072e+00 0.000000e+00 0.000000e+00
1.435252e+00 0.000000e+00 0.000000e+00
1.460432e+00 0.000000e+00 0.000000e+00
1.485612e+00 0.000000e+00 0.000000e+00
1.510791e+00 0.000000e+00 0.000000e+00
1.535971e+00 0.000000e+00 0.000000e+00
1.561151e+00 0.000000e+00 0.000000e+00
1.586331e+00 0.000000e+00 0.000000e+00
1.611511e+00 0.000000e+00 0.000000e+00
1.636691e+00 0.000000e+00 0.000000e+00
1.661871e+00 0.000000e+00 0.000000e+00
1.687050e+00 0.000000e+00 0.000000e+00
1.712230e+00 0.000000e+00 0.000000e+00
1.737410e+00 0.000000e+00 0.000000e+00
1.762590e+00 0.000000e+00 0.000000e+00
1.787770e+00 0.000000e+00 0.000000e+00
1.812950e+00 0.000000e+00 0.000000e+00
1.838129e+00 0.000000e+00 0.000000e+00
1.863309e+00 0.000000e+00 0.000000e+00
1.888489e+00 0.000000e+00 0.000000e+00
1.913669e+00 0.000000e+00 0.000000e+00
1.938849e+00 0.000000e+00 0.000000e+00
1.964029e+00 0.000000e+00 0.000000e+00
1.989209e+00 0.000000e+00 0.000000e+00
2.014388e+00 0.000000e+00 0.000000e+00
2.039568e+00 0.000000e+00 0.000000e+00
2.064748e+00 0.000000e+00 0.000000e+00
2.089928e+00 0.000000e+00 0.000000e+00
2.115108e+00 0.000000e+00 0.000000e+00
2.140288e+00 0.000000e+00 0.000000e+00
2.165468e+00 0.000000e+00 0.000000e+00
2.190647e+00 0.000000e+00 0.000000e+00
2.215827e+00 0.000000e+00 0.000000e+00
2.241007e+00 0.000000e+00 0.000000e+00
2.266187e+00 0.000000e+00 0.000000e+00
2.291367e+00 0.000000e+00 0.000000e+00
2.316547e+00 0.000000e+00 0.000000e+00
2.341727e+00 0.000000e+00 0.000000e+00
2.366906e+00 0.000000e+00 0.000000e+00
2.392086e+00 0.000000e+00 0.000000e+00
2.417266e+00 0.000000e+00 0.000000e+00
2.442446e+00 0.000000e+00 0.000000e+00
2.467626e+00 0.000000e+00 0.000000e+00
2.492806e+00 0.000000e+00 0.000000e+00
2.517986e+00 0.000000e+00 0.000000e+00
2.543165e+00 0.000000e+00 0.000000e+00
2.568345e+00 0.000000e+00 0.000000e+00
2.593525e+00 0.000000e+00 0.000000e+00
2.618705e+00 0.000000e+00 0.000000e+00
2.643885e+00 0.000000e+00 0.000000e+00
2.669065e+00 0.000000e+00 0.000000e+00
2.694245e+00 0.000000e+00 0.000000e+00
2.719424e+00 0.000000e+00 0.000000e+00
2.744604e+00 0.000000e+00 0.000000e+00
2.769784e+00 0.000000e+00 0.000000e+00
2.794964e+00 0.000000e+00 0.000000e+00
2.820144e+00 0.000000e+00 0.000000e+00
2.845324e+00 0.000000e+00 0.000000e+00
2.870504e+00 0.000000e+00 0.000000e+00
2.895683e+00 0.000000e+00 0.000000e+00
2.920863e+00 0.000000e+00 0.000000e+00
2.946043e+00 0.000000e+00 0.000000e+00
2.971223e+00 0.000000e+00 0.000000e+00
2.996403e+00 0.000000e+00 0.000000e+00
3.021583e+00 0.000000e+00 0.000000e+00
3.046763e+00 0.000000e+00 0.000000e+00
3.071942e+00 0.000000e+00 0.000000e+00
3.097122e+00 0.000000e+00 0.000000e+00
3.122302e+00 0.000000e+00 0.000000e+00
3.147482e+00 0.000000e+00 0.000000e+00
3.172662e+00 0.000000e+00 0.000000e+00
3.197842e+00 0.000000e+00 0.000000e+00
3.223022e+00 0.000000e+00 0.000000e+00
3.248201e+00 0.000000e+00 0.000000e+00
3.273381e+00 0.000000e+00 0.000000e+00
3.298561e+00 0.000000e+00 0.000000e+00
3.323741e+00 0.000000e+00 0.000000e+00
3.348921e+00 0.000000e+00 0.000000e+00
3.374101e+00 0.000000e+00 0.000000e+00
3.399281e+00 0.000000e+00 0.000000e+00
3.424460e+00 0.000000e+00 0.000000e+00
3.449640e+00 0.000000e+00 0.000000e+00
3.474820e+00 0.000000e+00 0.000000e+00
3.500000e+00 0.000000e+00 0.000000e+00
0.000000e+00 1.694915e-02 0.000000e+00
2.517986e-02 1.694915e-02 0.000000e+00
5.035971e-02 1.694915e-02 0.000000e+00
7.553957e-02 1.694915e-02 0.000000e+00
1.007194e-01 1.694915e-02 0.000000e+00
1.258993e-01 1.694915e-02 0.000000e+00
1.510791e-01 1.694915e-02 0.000000e+00
1.762590e-01 1.694915e-02 0.000000e+00
2.014388e-01 1.694915e-02 0.000000e+00
2.266187e-01 1.694915e-02 0.000000e+00
2.517986e-01 1.694915e-02 0.000000e+00
2.769784e-01 1.694915e-02 0.000000e+00
3.021583e-01 1.694915e-02 0.000000e+00
3.273381e-01 1.694915e-02 0.000000e+00
3.525180e-01 1.694915e-02 0.000000e+00
3.776978e-01 1.694915e-02 0.000000e+00
4.028777e-01 1.694915e-02 0.000000e+00
4.280576e-01 1.694915e-02 0.000000e+00
4.532374e-01 1.694915e-02 0.000000e+00
4.784173e-01 1.694915e-02 0.000000e+00
5.035971e-01 1.694915e-02 0.000000e+00
5.287770e-01 1.694915e-02 0.000000e+00
5.539568e-01 1.694915e-02 0.000000e+00
5.791367e-01 1.694915e-02 0.000000e+00
6.043165e-01 1.694915e-02 0.000000e+00
6.294964e-01 1.694915e-02 0.000000e+00
6.546763e-01 1.694915e-02 0.000000e+00
6.798561e-01 1.694915e-02 0.000000e+00
7.050360e-01 1.694915e-02 0.000000e+00
7.302158e-01 1.694915e-02 0.000000e+00
7.553957e-01 1.694915e-02 0.000000e+00
7.805755e-01 1.694915e-02 0.000000e+00
8.057554e-01 1.694915e-02 0.000000e+00
8.309353e-01 1.694915e-02 0.000000e+00
8.561151e-01 1.694915e-02 0.000000e+00
8.812950e-01 1.694915e-02 0.000000e+00
9.064748e-01 1.694915e-02 0.000000e+00
9.316547e-01 1.694915e-02 0.000000e+00
9.568345e-01 1.694915e-02 0.000000e+00
9.820144e-01 1.694915e-02 0.000000e+00
1.007194e+00 1.694915e-02 0.000000e+00
1.032374e+00 1.694915e-02 0.000000e+00
1.057554e+00 1.694915e-02 0.000000e+00
1.082734e+00 1.694915e-02 0.000000e+00
1.107914e+00 1.694915e-02 0.000000e+00
1.133094e+00 1.694915e-02 0.000000e+00
1.158273e+00 1.694915e-02 0.000000e+00
1.183453e+00 1.694915e-02 0.000000e+00
1.208633e+00 1.694915e-02 0.000000e+00
1.233813e+00 1.694915e-02 0.000000e+00
1.258993e+00 1.694915e-02 0.000000e+00
1.284173e+00 1.694915e-02 0.000000e+00
1.309353e+00 1.694915e-02 0.000000e+00
1.334532e+00 1.694915e-02 0.000000e+00
1.359712e+00 1.694915e-02 0.000000e+00
1.384892e+00 1.694915e-02 0.000000e+00
1.410072e+00 1.694915e-02 0.000000e+00
1.435252e+00 1.694915e-02 0.000000e+00
1.460432e+00 1.694915e-02 0.000000e+00
1.485612e+00 1.694915e-02 0.000000e+00
1.510791e+00 1.694915e-02 0.000000e+00
1.535971e+00 1.694915e-02 0.000000e+00
1.561151e+00 1.694915e-02 0.000000e+00
1.586331e+00 1.694915e-02 0.000000e+00
1.611511e+00 1.694915e-02 0.000000e+00
1.636691e+00 1.694915e-02 0.000000e+00
1.661871e+00 1.694915e-02 0.000000e+00
1.687050e+00 1.694915e-02 0.000000e+00
1.712230e+00 1.694915e-02 0.000000e+00
1.737410e+00 1.694915e-02 0.000000e+00
1.762590e+00 1.694915e-02 0.000000e+00
1.787770e+00 1.694915e-02 0.000000e+00
1.812950e+00 1.694915e-02 0.000000e+00
1.838129e+00 1.694915e-02 0.000000e+00
1.863309e+00 1.694915e-02 0.000000e+00
1.888489e+00 1.694915e-02 0.000000e+00
1.913669e+00 1.694915e-02 0.000000e+00
1.938849e+00 1.694915e-02 0.000000e+00
1.964029e+00 1.694915e-02 0.000000e+00
1.989209e+00 1.694915e-02 0.000000e+00
2.014388e+00 1.694915e-02 0.000000e+00
2.039568e+00 1.694915e-02 0.000000e+00
2.064748e+00 1.694915e-02 0.000000e+00
2.089928e+00 1.694915e-02 0.000000e+00
2.115108e+00 1.694915e-02 0.000000e+00
2.140288e+00 1.694915e-02 0.000000e+00
2.165468e+00 1.694915e-02 0.000000e+00
2.190647e+00 1.694915e-02 0.000000e+00
2.215827e+00 1.694915e-02 0.000000e+00
2.241007e+00 1.694915e-02 0.000000e+00
2.266187e+00 1.694915e-02 0.000000e+00
2.291367e+00 1.694915e-02 0.000000e+00
2.316547e+00 1.694915e-02 0.000000e+00
2.341727e+00 1.694915e-02 0.000000e+00
2.366906e+00 1.694915e-02 0.000000e+00
2.392086e+00 1.694915e-02 0.000000e+00
2.417266e+00 1.694915e-02 0.000000e+00
2.442446e+00 1.694915e-02 0.000000e+00
2.467626e+00 1.694915e-02 0.000000e+00
2.492806e+00 1.694915e-02 0.000000e+00
2.517986e+00 1.694915e-02 0.000000e+00
2.543165e+00 1.694915e-02 0.000000e+00
2.568345e+00 1.694915e-02 0.000000e+00
2.593525e+00 1.694915e-02 0.000000e+00
2.618705e+00 1.694915e-02 0.000000e+00
2.643885e+00 1.694915e-02 0.000000e+00
2.669065e+00 1.694915e-02 0.000000e+00
2.694245e+00 1.694915e-02 0.000000e+00
2.719424e+00 1.694915e-02 0.000000e+00
2.744604e+00 1.694915e-02 0.000000e+00
2.769784e+00 1.694915e-02 0.000000e+00
2.794964e+00 1.694915e-02 0.000000e+00
2.820144e+00 1.694915e-02 0.000000e+00
[...]
POINT_DATA 8400
SCALARS RES_Cont double
LOOKUP_TABLE default
0.000000e+00
0.000000e+00
0.000000e+00
0.000000e+00
0.000000e+00
0.000000e+00
0.000000e+00
0.000000e+00
0.000000e+00
0.000000e+00
0.000000e+00
0.000000e+00
0.000000e+00
0.000000e+00
0.000000e+00
0.000000e+00
0.000000e+00
0.000000e+00
0.000000e+00
0.000000e+00
0.000000e+00
0.000000e+00
0.000000e+00
0.000000e+00
0.000000e+00
0.000000e+00
0.000000e+00
0.000000e+00
0.000000e+00
0.000000e+00
0.000000e+00
0.000000e+00
0.000000e+00
0.000000e+00
0.000000e+00
0.000000e+00
0.000000e+00
0.000000e+00
0.000000e+00
0.000000e+00
0.000000e+00
0.000000e+00
0.000000e+00
0.000000e+00
0.000000e+00
0.000000e+00
0.000000e+00
0.000000e+00
0.000000e+00
0.000000e+00
0.000000e+00
0.000000e+00
0.000000e+00
0.000000e+00
0.000000e+00
0.000000e+00
0.000000e+00
0.000000e+00
0.000000e+00
0.000000e+00
0.000000e+00
0.000000e+00
0.000000e+00
0.000000e+00
0.000000e+00
0.000000e+00
0.000000e+00
0.000000e+00
0.000000e+00
0.000000e+00
0.000000e+00
0.000000e+00
0.000000e+00
0.000000e+00
0.000000e+00
0.000000e+00
0.000000e+00
0.000000e+00
0.000000e+00
0.000000e+00
0.000000e+00
0.000000e+00
0.000000e+00
0.000000e+00
0.000000e+00
0.000000e+00
0.000000e+00
0.000000e+00
0.000000e+00
0.000000e+00
0.000000e+00
0.000000e+00
0.000000e+00
0.000000e+00
0.000000e+00
0.000000e+00
0.000000e+00
0.000000e+00
0.000000e+00
0.000000e+00
0.000000e+00
0.000000e+00
0.000000e+00
0.000000e+00
0.000000e+00
0.000000e+00
0.000000e+00
0.000000e+00
0.000000e+00
0.000000e+00
0.000000e+00
0.000000e+00
0.000000e+00
0.000000e+00
0.000000e+00
0.000000e+00
0.000000e+00
0.000000e+00
0.000000e+00
0.000000e+00
0.000000e+00
0.000000e+00
0.000000e+00
0.000000e+00
0.000000e+00
0.000000e+00
0.000000e+00
0.000000e+00
0.000000e+00
0.000000e+00
0.000000e+00
0.000000e+00
0.000000e+00
0.000000e+00
0.000000e+00
0.000000e+00
0.000000e+00
0.000000e+00
0.000000e+00
0.000000e+00
0.000000e+00
-0.000000e+00
-0.000000e+00
-0.000000e+00
-0.000000e+00
-0.000000e+00
-0.000000e+00
3.951571e-19
-2.766100e-18
2.082467e-18
-9.089700e-20
-4.179766e-18
7.142492e-19
2.416391e-18
2.578590e-19
1.793992e-18
-1.484016e-18
-2.249020e-18
1.055251e-18
1.909380e-18
-1.665693e-18
4.132212e-18
-7.431019e-19
1.456216e-18
-3.120889e-18
3.624877e-19
4.338613e-18
-2.664903e-18
1.595629e-19
1.747706e-18
1.664343e-18
-2.373046e-18
-1.608582e-18
3.644665e-18
4.348978e-18
6.850600e-20
-7.551075e-19
2.135495e-18
4.542930e-18
1.361674e-19
4.364301e-18
1.814293e-18
-2.115780e-18
2.250419e-18
9.791791e-19
3.811481e-18
2.900692e-19
-2.377207e-18
4.104878e-20
-5.273457e-18
-1.531035e-18
-5.025068e-18
-1.055501e-18
-1.855455e-18
-3.414236e-18
2.536725e-18
7.911412e-19
-7.465767e-18
1.398841e-18
-3.335129e-18
-1.979172e-18
-8.307055e-19
1.191489e-17
2.065689e-17
4.837504e-18
1.809389e-17
4.271930e-18
-1.102001e-17
-3.076672e-17
-1.417700e-17
2.578263e-17
4.042829e-17
3.481927e-17
2.193479e-17
-1.623224e-17
-2.425103e-17
-3.484579e-17
-3.208320e-17
-6.572231e-18
-3.033810e-17
3.475839e-18
-3.928114e-17
-9.332709e-18
8.313237e-17
6.739782e-17
5.927352e-18
-5.119194e-18
-5.179919e-18
-1.155225e-17
-3.641789e-18
7.397571e-18
1.384625e-18
-1.468809e-17
1.692918e-17
5.857934e-17
2.088313e-16
6.518905e-16
1.813126e-15
5.011491e-15
1.375290e-14
3.689232e-14
9.681369e-14
2.480691e-13
6.205967e-13
1.516352e-12
3.619894e-12
8.445710e-12
1.926336e-11
4.296171e-11
9.370776e-11
1.999374e-10
4.173583e-10
8.524769e-10
1.703985e-09
3.333473e-09
6.382650e-09
1.196155e-08
2.194058e-08
3.938749e-08
6.919491e-08
1.189416e-07
2.000127e-07
3.289652e-07
5.290549e-07
8.317405e-07
1.277853e-06
1.917981e-06
2.811537e-06
4.023928e-06
5.621440e-06
7.663728e-06
1.019437e-05
1.323054e-05
1.675347e-05
2.070165e-05
2.496859e-05
2.940631e-05
3.383469e-05
3.805545e-05
0.000000e+00
0.000000e+00
-0.000000e+00
-0.000000e+00
-0.000000e+00
-0.000000e+00
-0.000000e+00
3.951571e-19
-5.927357e-19
1.778207e-18
7.903142e-19
-4.164934e-18
-6.994172e-19
5.289172e-18
1.580628e-18
-2.141795e-18
-1.059195e-18
-1.647168e-18
3.473138e-18
-2.332029e-18
-2.948863e-18
1.142524e-19
-1.188830e-18
-2.499037e-19
-1.506236e-18
1.050624e-18
-3.108179e-19
-1.920235e-18
-4.955105e-19
1.166480e-18
3.671948e-19
-3.355834e-18
-7.602581e-19
2.455278e-19
5.316550e-19
2.620430e-18
1.400238e-18
-2.107697e-18
-1.159894e-18
-3.314508e-18
1.092347e-18
4.323399e-18
2.211716e-18
8.413603e-19
3.738960e-18
1.103998e-18
1.955261e-18
7.469365e-20
2.982983e-18
-8.759100e-19
-3.940134e-18
-1.730488e-18
-3.703356e-18
-8.095754e-19
8.612997e-19
-1.328216e-18
-1.262726e-17
-8.172391e-18
-1.091640e-18
2.863090e-19
5.338221e-18
1.252730e-18
-1.266387e-18
-1.114007e-19
7.126913e-18
8.029193e-19
4.488363e-18
8.535025e-19
-2.114516e-17
-2.066625e-17
-3.930491e-18
1.748645e-17
1.295006e-17
1.115761e-17
1.360746e-17
-2.200154e-17
-1.331079e-17
-1.686157e-17
3.049476e-17
4.018270e-17
1.112176e-17
-1.480725e-17
-4.165089e-17
-2.026571e-17
-9.813088e-18
2.508006e-17
5.033224e-17
3.413237e-17
-3.417087e-18
-1.014700e-17
-1.855538e-17
-2.926038e-18
7.272489e-18
3.738624e-18
2.889690e-17
4.859704e-17
1.941343e-16
6.276948e-16
1.763385e-15
4.962429e-15
1.361576e-14
3.656211e-14
9.588890e-14
2.458185e-13
6.151530e-13
1.503574e-12
3.590706e-12
8.380522e-12
1.912105e-11
4.265794e-11
9.307361e-11
1.986435e-10
4.147770e-10
8.474395e-10
1.694363e-09
3.315471e-09
6.349629e-09
1.190211e-08
2.183553e-08
3.920510e-08
6.888388e-08
1.184210e-07
1.991583e-07
3.275927e-07
5.269008e-07
8.284445e-07
1.272946e-06
1.910887e-06
2.801594e-06
4.010438e-06
5.603740e-06
7.641288e-06
1.016689e-05
1.319804e-05
1.671634e-05
2.066064e-05
2.492477e-05
2.936098e-05
3.378926e-05
3.801134e-05
0.000000e+00
0.000000e+00
-0.000000e+00
-0.000000e+00
-0.000000e+00
-0.000000e+00
3.951571e-19
-7.903142e-19
3.860674e-18
3.465517e-18
1.669620e-19
-1.459115e-18
6.233522e-19
1.018509e-18
-3.433948e-18
-2.306852e-18
-5.389186e-18
-2.049945e-18
1.842022e-18
-2.068195e-18
-2.390579e-18
2.077771e-18
1.190351e-18
1.120886e-18
2.665746e-18
3.300521e-18
-3.529972e-19
-4.207158e-18
-5.929693e-18
3.142990e-18
2.466719e-18
2.774320e-18
3.129085e-18
5.189744e-18
3.222058e-18
-2.610998e-18
-1.764448e-18
-9.355178e-19
5.440567e-18
3.837747e-18
2.155966e-18
-1.554788e-18
6.370335e-19
-1.623852e-18
2.140517e-18
2.398125e-18
2.054664e-18
-2.658909e-18
-2.281312e-18
-2.707913e-18
1.337111e-18
-1.908819e-18
3.393502e-18
3.357395e-18
5.977577e-18
1.008883e-17
1.357866e-18
-1.464165e-17
-7.462568e-18
1.318876e-17
3.363182e-18
1.192748e-17
-5.192897e-18
-1.644680e-17
-1.193054e-17
-4.912488e-18
-1.003258e-17
2.780248e-18
4.320251e-19
-2.192207e-18
9.321459e-18
-2.345882e-18
4.224962e-18
1.661210e-17
-5.911360e-18
-1.997271e-17
-3.804657e-17
2.030097e-18
2.029890e-17
4.890798e-17
4.099786e-17
2.343238e-17
-1.641789e-17
-4.628820e-17
-3.381040e-17
-1.532340e-17
2.426903e-17
4.507512e-17
7.492747e-18
4.932366e-18
2.009630e-18
-6.996942e-18
-3.093543e-17
4.163797e-18
2.598598e-17
5.829894e-17
1.768621e-16
5.651898e-16
1.691920e-15
4.868622e-15
1.338971e-14
3.593891e-14
9.431472e-14
2.418996e-13
6.057502e-13
1.481617e-12
3.540651e-12
8.268983e-12
1.887778e-11
4.213928e-11
9.199279e-11
1.964414e-10
4.103893e-10
8.388867e-10
1.678043e-09
3.284966e-09
6.293727e-09
1.180160e-08
2.165814e-08
3.889768e-08
6.836088e-08
1.175481e-07
1.977307e-07
3.253083e-07
5.233308e-07
8.230059e-07
1.264885e-06
1.899285e-06
2.785402e-06
3.988555e-06
5.575134e-06
7.605142e-06
1.012276e-05
1.314599e-05
1.665701e-05
2.059526e-05
2.485505e-05
2.928900e-05
3.371727e-05
3.794163e-05
0.000000e+00
0.000000e+00
-0.000000e+00
-0.000000e+00
-0.000000e+00
-0.000000e+00
-1.185471e-18
-1.778207e-18
6.994172e-19
-7.903142e-19
-3.282770e-18
-2.690035e-18
7.754822e-19
-2.369990e-18
-1.867199e-18
3.089002e-18
3.250249e-18
9.608108e-19
5.714947e-19
2.756541e-18
4.102155e-18
-1.427212e-19
-2.586798e-18
5.816246e-19
2.385772e-19
-1.857188e-18
6.896002e-19
8.078911e-19
-3.231563e-18
3.270810e-18
5.820715e-18
-3.184482e-19
8.103829e-19
2.954859e-18
1.247173e-18
-3.827433e-18
-4.076988e-18
1.212710e-18
-2.884406e-19
1.684053e-18
6.744768e-19
8.375291e-19
-2.220517e-18
-9.615536e-19
-1.401023e-18
-6.456224e-18
-6.056591e-18
-2.987574e-18
-2.101626e-18
-4.706839e-18
-3.761131e-18
-4.081268e-18
-7.944219e-18
1.630852e-18
7.115974e-20
1.036225e-17
2.634935e-18
1.383699e-17
-8.105097e-19
-1.409656e-17
-1.194125e-17
7.437231e-18
-6.427502e-19
-1.754155e-17
-1.814654e-18
6.132252e-19
-2.997723e-18
1.992978e-17
2.418944e-17
1.979739e-17
3.859139e-18
-1.667531e-17
-2.198959e-17
-3.687034e-18
1.871714e-17
6.105582e-18
-2.667174e-17
-1.946534e-17
1.101206e-17
1.333592e-17
2.108265e-17
1.424036e-17
3.534385e-18
-3.473129e-17
-4.596878e-17
-6.251268e-17
-1.479128e-17
2.810375e-17
2.726824e-17
1.228930e-17
-1.189284e-17
1.267092e-17
7.457923e-18
-2.584560e-17
1.655613e-17
3.867423e-17
1.766529e-16
5.185586e-16
1.645661e-15
4.698870e-15
1.297573e-14
3.502292e-14
9.205235e-14
2.362605e-13
5.922254e-13
1.450114e-12
3.468835e-12
8.108788e-12
1.852858e-11
4.139518e-11
9.044237e-11
1.932825e-10
4.040946e-10
8.266132e-10
1.654615e-09
3.241156e-09
6.213423e-09
1.165722e-08
2.140344e-08
3.845673e-08
6.761190e-08
1.163007e-07
1.956959e-07
3.220616e-07
5.182718e-07
8.153213e-07
1.253525e-06
1.882971e-06
2.762673e-06
3.957878e-06
5.535062e-06
7.554524e-06
1.006096e-05
1.307307e-05
1.657386e-05
2.050359e-05
2.475731e-05
2.918815e-05
3.361659e-05
3.784442e-05
0.000000e+00
0.000000e+00
-0.000000e+00
-0.000000e+00
-0.000000e+00
-0.000000e+00
-5.927357e-19
9.878928e-19
-5.152827e-18
-4.255831e-18
-1.732758e-18
-1.383050e-18
-4.544850e-20
-2.567569e-18
-3.626354e-19
3.826247e-18
-1.634516e-18
5.327126e-18
-2.904785e-18
-1.327021e-19
1.485018e-18
2.672051e-18
2.063970e-19
-4.175373e-19
-1.643661e-18
3.185353e-19
1.535274e-19
3.120555e-18
8.446847e-19
4.251063e-18
4.952511e-18
3.051649e-18
-1.585941e-19
-1.476622e-18
3.682130e-18
-2.767742e-18
-2.832589e-18
-2.240880e-18
-3.222895e-18
-1.124593e-18
-3.487145e-18
-4.054487e-18
-1.149943e-18
1.163259e-18
-3.612712e-18
-1.871866e-18
2.035617e-18
4.733829e-18
5.605053e-19
-2.814049e-18
4.055577e-18
-4.640191e-18
-8.790492e-20
5.327739e-18
-3.507643e-18
-1.779355e-18
3.191415e-18
9.699710e-18
1.673705e-17
-2.365145e-17
-3.274752e-17
-9.049807e-18
9.622652e-18
4.641792e-18
1.306820e-17
3.432253e-18
3.476988e-18
1.720186e-17
1.871722e-17
3.542883e-17
1.448140e-17
-3.106689e-18
-1.579485e-17
-3.823236e-17
-3.188161e-17
3.014657e-17
4.008753e-17
1.438086e-17
-1.167097e-17
-1.434115e-17
1.576739e-18
-5.665462e-20
1.572051e-17
1.210652e-17
-1.967534e-17
-7.725913e-17
-4.208579e-17
-1.660106e-17
-2.498424e-18
5.972406e-18
6.912690e-17
1.476571e-17
-1.828271e-17
2.630048e-18
-2.513677e-18
3.536488e-17
1.730841e-16
5.202905e-16
1.556822e-15
4.499120e-15
1.252005e-14
3.379292e-14
8.904782e-14
2.289101e-13
5.746770e-13
1.409068e-12
3.375112e-12
7.899779e-12
1.807280e-11
4.042346e-11
8.841687e-11
1.891532e-10
3.958592e-10
8.105401e-10
1.623902e-09
3.183668e-09
6.107966e-09
1.146755e-08
2.106887e-08
3.787794e-08
6.663011e-08
1.146688e-07
1.930402e-07
3.178355e-07
5.117045e-07
8.053703e-07
1.238846e-06
1.861922e-06
2.733374e-06
3.918339e-06
5.483389e-06
7.489180e-06
9.981053e-06
1.297862e-05
1.646595e-05
2.038443e-05
2.463012e-05
2.905693e-05
3.348575e-05
3.771849e-05
0.000000e+00
0.000000e+00
-0.000000e+00
-0.000000e+00
-0.000000e+00
-0.000000e+00
2.766100e-18
-5.152827e-18
-2.477624e-18
1.930337e-18
-3.161257e-18
-5.046145e-18
-4.437625e-18
9.424443e-19
9.673453e-19
9.851687e-19
1.162058e-18
-5.777967e-18
-1.634434e-20
-2.966194e-18
-2.020985e-18
-3.930343e-18
-3.967699e-18
-7.142311e-19
-2.578344e-18
1.346780e-18
3.157404e-18
-1.524043e-18
4.692545e-19
-2.197058e-18
8.782061e-19
-2.400677e-19
4.880814e-19
-2.277676e-19
-2.974289e-18
-1.365804e-18
-5.721395e-18
8.606943e-19
-1.629068e-18
4.618798e-19
-2.350323e-18
2.638649e-18
3.351390e-18
-1.176169e-18
3.873942e-18
-2.571920e-18
3.327862e-18
-1.246382e-18
-2.001963e-18
-3.398646e-18
-1.428682e-18
1.599024e-18
1.078098e-17
1.570564e-17
6.815256e-18
-4.775526e-18
-1.331091e-17
8.509598e-18
3.241620e-18
-2.194503e-17
-1.059958e-17
4.274877e-18
9.974199e-18
4.056024e-18
6.449971e-18
1.002923e-17
6.191583e-18
1.015270e-17
1.984847e-17
1.120219e-17
2.688870e-17
2.468183e-17
2.877263e-18
-3.616440e-18
-4.210878e-17
-1.942136e-17
1.868062e-17
1.807109e-17
5.408467e-18
-1.192355e-17
-1.352534e-17
5.050864e-18
7.565290e-18
3.431153e-17
4.994862e-18
-1.700620e-17
-4.135111e-17
-5.132019e-17
-2.115191e-17
1.857082e-17
4.846910e-17
2.716182e-17
1.402009e-17
3.586068e-17
8.183659e-18
5.370224e-17
1.536330e-16
4.919045e-16
1.462914e-15
4.260814e-15
1.189202e-14
3.227625e-14
8.532173e-14
2.199300e-13
5.531413e-13
1.358729e-12
3.260190e-12
7.643221e-12
1.751295e-11
3.922889e-11
8.592422e-11
1.840656e-10
3.856995e-10
7.906832e-10
1.585904e-09
3.112449e-09
5.977180e-09
1.123217e-08
2.065363e-08
3.715998e-08
6.541376e-08
1.126506e-07
1.897634e-07
3.126341e-07
5.036419e-07
7.931818e-07
1.220900e-06
1.836220e-06
2.697618e-06
3.870077e-06
5.420255e-06
7.409212e-06
9.883052e-06
1.286248e-05
1.633294e-05
2.023723e-05
2.447275e-05
2.889446e-05
3.332392e-05
3.756322e-05
0.000000e+00
0.000000e+00
-0.000000e+00
-0.000000e+00
-0.000000e+00
1.975786e-19
8.969958e-19
-3.556414e-18
4.712221e-19
3.723376e-18
7.439131e-19
2.856997e-18
1.276368e-18
2.518310e-18
4.742136e-19
1.675737e-18
-5.488397e-18
-9.326510e-19
-2.137768e-18
2.070610e-19
-4.688545e-18
-3.854506e-18
-4.145058e-18
1.647755e-18
3.128144e-18
-2.789265e-18
-4.161122e-18
-3.208501e-18
-4.204551e-18
-4.530236e-18
-3.162331e-18
-5.522010e-18
8.608276e-20
-6.779225e-19
4.279492e-18
1.038692e-18
1.092542e-18
2.715539e-18
2.539538e-18
1.059329e-18
3.164657e-18
5.897841e-18
4.974595e-18
7.159275e-18
7.003832e-18
3.386364e-18
-4.639770e-18
-3.243016e-18
-1.157697e-18
-3.871201e-18
-1.895377e-18
-9.292443e-19
-1.255711e-19
-6.446137e-18
-8.606926e-18
5.212070e-18
1.162577e-17
-1.767351e-18
2.089676e-18
1.027496e-17
-6.195830e-18
-4.826084e-18
-5.341337e-18
3.017764e-18
5.687283e-18
-3.990019e-18
-3.574399e-18
1.904164e-18
1.080811e-17
-5.146680e-18
-8.075787e-18
1.603094e-17
2.037223e-17
1.875544e-17
1.462051e-17
-2.082911e-17
1.989630e-18
2.428513e-18
1.092187e-17
1.675617e-17
-7.707607e-18
1.953046e-18
2.518033e-17
2.328657e-17
9.398578e-18
-1.520746e-17
-3.697703e-17
-5.090214e-17
-1.383106e-17
6.795804e-18
3.535754e-17
5.288203e-17
1.529960e-17
3.811028e-17
6.540889e-17
4.008751e-17
1.111180e-16
4.432161e-16
1.385392e-15
4.005879e-15
1.119724e-14
3.057077e-14
8.100779e-14
2.093546e-13
5.279384e-13
1.299792e-12
3.125390e-12
7.341828e-12
1.685442e-11
3.782195e-11
8.298409e-11
1.780552e-10
3.736763e-10
7.671423e-10
1.540777e-09
3.027735e-09
5.821410e-09
1.095158e-08
2.015850e-08
3.630418e-08
6.396529e-08
1.102511e-07
1.858752e-07
3.064759e-07
4.941182e-07
7.788145e-07
1.199781e-06
1.806008e-06
2.655603e-06
3.813346e-06
5.345957e-06
7.314931e-06
9.767238e-06
1.272487e-05
1.617489e-05
2.006188e-05
2.428493e-05
2.870042e-05
3.313079e-05
3.737843e-05
0.000000e+00
0.000000e+00
-0.000000e+00
-0.000000e+00
-0.000000e+00
-1.383050e-18
3.951571e-18
3.161257e-18
-1.975786e-19
-4.255831e-18
-2.477624e-18
2.385775e-18
2.032256e-18
1.347261e-18
-4.515328e-18
1.262481e-18
-8.139869e-19
-2.797176e-18
-2.440564e-19
-1.517235e-18
-3.029095e-18
-1.894020e-18
2.821182e-18
3.791005e-18
-6.564316e-18
-8.792442e-19
-4.505859e-18
5.742524e-18
-1.985333e-18
-2.662821e-18
-9.120768e-19
4.975771e-19
-4.346365e-18
1.314360e-18
2.932005e-19
2.627138e-18
-1.495901e-19
4.835808e-18
-2.293985e-19
2.454661e-18
-1.925657e-18
1.579868e-18
-2.672985e-18
3.295522e-18
4.175845e-18
3.318042e-18
3.396854e-18
-5.602985e-19
1.684436e-18
5.606565e-18
1.367906e-17
6.960192e-18
-7.169543e-18
-1.587481e-18
-5.373118e-18
1.699357e-17
3.562677e-17
6.321398e-18
7.810391e-18
-1.473544e-17
-1.987630e-17
-9.625858e-18
-9.511678e-18
-1.009424e-17
-2.354778e-17
-2.906975e-18
-1.048858e-17
-6.718886e-18
-1.482134e-17
-4.288675e-17
-1.363456e-17
1.602019e-17
1.918270e-17
2.355540e-17
5.533493e-17
1.221146e-17
-2.039137e-17
-8.773439e-18
-5.919478e-18
1.015856e-17
2.086122e-17
2.143464e-17
1.364560e-17
1.959910e-17
2.387819e-17
3.496814e-18
-2.725637e-17
-2.509284e-17
-2.577971e-17
2.286969e-17
3.450830e-17
-4.439530e-18
8.580444e-18
4.089912e-17
2.005970e-17
3.873165e-17
1.272757e-16
4.208405e-16
1.266784e-15
3.737975e-15
1.047514e-14
2.862502e-14
7.612971e-14
1.974489e-13
4.994294e-13
1.233013e-12
2.972442e-12
6.999469e-12
1.610502e-11
3.621795e-11
7.962596e-11
1.711766e-10
3.598887e-10
7.400918e-10
1.488821e-09
2.930029e-09
5.641488e-09
1.062715e-08
1.958573e-08
3.531425e-08
6.229092e-08
1.074806e-07
1.813931e-07
2.993905e-07
4.831814e-07
7.623446e-07
1.175606e-06
1.771455e-06
2.607564e-06
3.748449e-06
5.260865e-06
7.206755e-06
9.634039e-06
1.256618e-05
1.599211e-05
1.985856e-05
2.406672e-05
2.847473e-05
3.290624e-05
3.716409e-05
0.000000e+00
0.000000e+00
-0.000000e+00
3.951571e-19
-1.975786e-19
-1.489731e-18
2.173364e-18
-3.739160e-18
1.483197e-20
-2.523073e-18
-7.903142e-19
-2.616827e-18
4.120029e-18
2.299365e-18
-1.334476e-18
-2.741734e-18
-3.737038e-18
8.663946e-19
1.057796e-18
4.711190e-18
5.310376e-18
4.684933e-18
2.252990e-18
1.982909e-18
-4.373243e-19
3.101851e-18
1.948836e-18
-2.747363e-18
2.435983e-18
-1.573406e-18
2.615466e-19
4.887267e-18
4.579358e-18
2.200026e-18
1.250894e-18
-1.356908e-18
-8.468413e-19
1.166549e-18
3.101056e-18
-1.322090e-18
-1.993966e-19
-2.824936e-18
3.598223e-18
-5.804935e-19
-6.992319e-18
-9.491863e-18
3.494273e-18
-1.087344e-17
4.472162e-18
-1.542024e-18
8.139107e-19
-3.211452e-18
5.439181e-18
7.396776e-18
1.797226e-17
2.349038e-17
8.622984e-18
8.769834e-18
-5.230029e-18
-1.418569e-17
-1.799661e-17
1.561279e-17
1.760868e-18
-9.347895e-18
-1.023786e-17
-1.942366e-17
1.058001e-17
1.397939e-19
-1.888456e-17
-1.787502e-17
-4.686586e-17
-2.544781e-17
1.829765e-17
1.769331e-17
4.555813e-18
2.318360e-17
7.845285e-18
-1.667150e-17
-2.053893e-17
-7.655783e-18
1.083225e-17
3.020338e-17
2.210973e-17
2.800794e-17
3.629044e-17
2.716632e-17
-2.876369e-17
-4.559566e-17
-1.235708e-17
1.456057e-17
-1.366248e-17
7.385859e-18
-4.063627e-18
1.827789e-17
4.803921e-17
1.200129e-17
1.384485e-16
4.098292e-16
1.168814e-15
3.407184e-15
9.662186e-15
2.652763e-14
7.084228e-14
1.844168e-13
4.681124e-13
1.159478e-12
2.803633e-12
6.620795e-12
1.527441e-11
3.443609e-11
7.588703e-11
1.635007e-10
3.444675e-10
7.097689e-10
1.430458e-09
2.820063e-09
5.438672e-09
1.026101e-08
1.893885e-08
3.419602e-08
6.040010e-08
1.043544e-07
1.763410e-07
2.914149e-07
4.708881e-07
7.438566e-07
1.148498e-06
1.732734e-06
2.553737e-06
3.675696e-06
5.165361e-06
7.085128e-06
9.483936e-06
1.238687e-05
1.578501e-05
1.962757e-05
2.381826e-05
2.821740e-05
3.265017e-05
3.692009e-05
0.000000e+00
0.000000e+00
-0.000000e+00
-1.185471e-18
9.878928e-19
1.778207e-18
-2.884755e-19
1.185471e-18
-1.504563e-18
-2.599138e-18
-1.688672e-19
2.726910e-18
3.181938e-18
-1.984768e-18
-7.058013e-19
1.082809e-18
4.645648e-18
-2.623957e-18
-5.200868e-18
-1.486190e-18
-6.453578e-19
4.187716e-18
2.114603e-18
1.837030e-18
3.836054e-18
-6.901351e-20
-2.828760e-18
4.140432e-18
5.937118e-18
2.625161e-18
3.441297e-18
3.277684e-19
3.371942e-18
-3.335797e-19
-3.929238e-18
1.333178e-18
-1.025337e-18
-3.664633e-18
-4.086487e-18
-2.253677e-18
-5.763053e-19
4.511451e-19
9.259230e-18
4.720573e-18
-7.164878e-18
-8.205821e-18
-6.094720e-19
2.369174e-18
-8.051633e-18
-2.883128e-18
-9.122209e-18
7.254793e-18
1.313259e-17
1.367362e-17
2.451971e-18
1.638465e-17
1.240088e-17
-1.445749e-17
-2.080574e-17
-6.010688e-18
1.087729e-17
4.856179e-18
2.117825e-17
-1.276232e-17
1.120278e-18
-1.832881e-17
-2.403950e-17
-7.541752e-19
-4.090754e-18
3.247636e-18
-1.884827e-19
-5.489113e-18
3.071094e-18
-8.663542e-19
2.767245e-18
6.641635e-18
2.932533e-19
-3.161373e-18
-1.394691e-17
6.826211e-19
-5.869224e-18
4.796316e-18
3.921844e-18
1.389114e-17
2.500209e-17
3.373332e-17
2.466221e-17
-3.381622e-17
-2.726604e-17
1.588916e-18
2.740387e-17
1.339580e-17
-9.012828e-18
1.413172e-17
1.387346e-17
4.902335e-17
1.454087e-16
3.986607e-16
1.087146e-15