# vtk DataFile Version 3.0
Resultado Projeto 3
ASCII
DATASET STRUCTURED_GRID
DIMENSIONS 70 30 1 
POINTS 2100 double
0.000000e+00 0.000000e+00 0.000000e+00
5.072464e-02 0.000000e+00 0.000000e+00
1.014493e-01 0.000000e+00 0.000000e+00
1.521739e-01 0.000000e+00 0.000000e+00
2.028986e-01 0.000000e+00 0.000000e+00
2.536232e-01 0.000000e+00 0.000000e+00
3.043478e-01 0.000000e+00 0.000000e+00
3.550725e-01 0.000000e+00 0.000000e+00
4.057971e-01 0.000000e+00 0.000000e+00
4.565217e-01 0.000000e+00 0.000000e+00
5.072464e-01 0.000000e+00 0.000000e+00
5.579710e-01 0.000000e+00 0.000000e+00
6.086957e-01 0.000000e+00 0.000000e+00
6.594203e-01 0.000000e+00 0.000000e+00
7.101449e-01 0.000000e+00 0.000000e+00
7.608696e-01 0.000000e+00 0.000000e+00
8.115942e-01 0.000000e+00 0.000000e+00
8.623188e-01 0.000000e+00 0.000000e+00
9.130435e-01 0.000000e+00 0.000000e+00
9.637681e-01 0.000000e+00 0.000000e+00
1.014493e+00 0.000000e+00 0.000000e+00
1.065217e+00 0.000000e+00 0.000000e+00
1.115942e+00 0.000000e+00 0.000000e+00
1.166667e+00 0.000000e+00 0.000000e+00
1.217391e+00 0.000000e+00 0.000000e+00
1.268116e+00 0.000000e+00 0.000000e+00
1.318841e+00 0.000000e+00 0.000000e+00
1.369565e+00 0.000000e+00 0.000000e+00
1.420290e+00 0.000000e+00 0.000000e+00
1.471014e+00 0.000000e+00 0.000000e+00
1.521739e+00 0.000000e+00 0.000000e+00
1.572464e+00 0.000000e+00 0.000000e+00
1.623188e+00 0.000000e+00 0.000000e+00
1.673913e+00 0.000000e+00 0.000000e+00
1.724638e+00 0.000000e+00 0.000000e+00
1.775362e+00 0.000000e+00 0.000000e+00
1.826087e+00 0.000000e+00 0.000000e+00
1.876812e+00 0.000000e+00 0.000000e+00
1.927536e+00 0.000000e+00 0.000000e+00
1.978261e+00 0.000000e+00 0.000000e+00
2.028986e+00 0.000000e+00 0.000000e+00
2.079710e+00 0.000000e+00 0.000000e+00
2.130435e+00 0.000000e+00 0.000000e+00
2.181159e+00 0.000000e+00 0.000000e+00
2.231884e+00 0.000000e+00 0.000000e+00
2.282609e+00 0.000000e+00 0.000000e+00
2.333333e+00 0.000000e+00 0.000000e+00
2.384058e+00 0.000000e+00 0.000000e+00
2.434783e+00 0.000000e+00 0.000000e+00
2.485507e+00 0.000000e+00 0.000000e+00
2.536232e+00 0.000000e+00 0.000000e+00
2.586957e+00 0.000000e+00 0.000000e+00
2.637681e+00 0.000000e+00 0.000000e+00
2.688406e+00 0.000000e+00 0.000000e+00
2.739130e+00 0.000000e+00 0.000000e+00
2.789855e+00 0.000000e+00 0.000000e+00
2.840580e+00 0.000000e+00 0.000000e+00
2.891304e+00 0.000000e+00 0.000000e+00
2.942029e+00 0.000000e+00 0.000000e+00
2.992754e+00 0.000000e+00 0.000000e+00
3.043478e+00 0.000000e+00 0.000000e+00
3.094203e+00 0.000000e+00 0.000000e+00
3.144928e+00 0.000000e+00 0.000000e+00
3.195652e+00 0.000000e+00 0.000000e+00
3.246377e+00 0.000000e+00 0.000000e+00
3.297101e+00 0.000000e+00 0.000000e+00
3.347826e+00 0.000000e+00 0.000000e+00
3.398551e+00 0.000000e+00 0.000000e+00
3.449275e+00 0.000000e+00 0.000000e+00
3.500000e+00 0.000000e+00 0.000000e+00
0.000000e+00 3.448276e-02 0.000000e+00
5.072464e-02 3.448276e-02 0.000000e+00
1.014493e-01 3.448276e-02 0.000000e+00
1.521739e-01 3.448276e-02 0.000000e+00
2.028986e-01 3.448276e-02 0.000000e+00
2.536232e-01 3.448276e-02 0.000000e+00
3.043478e-01 3.448276e-02 0.000000e+00
3.550725e-01 3.448276e-02 0.000000e+00
4.057971e-01 3.448276e-02 0.000000e+00
4.565217e-01 3.448276e-02 0.000000e+00
5.072464e-01 3.448276e-02 0.000000e+00
5.579710e-01 3.448276e-02 0.000000e+00
6.086957e-01 3.448276e-02 0.000000e+00
6.594203e-01 3.448276e-02 0.000000e+00
7.101449e-01 3.448276e-02 0.000000e+00
7.608696e-01 3.448276e-02 0.000000e+00
8.115942e-01 3.448276e-02 0.000000e+00
8.623188e-01 3.448276e-02 0.000000e+00
9.130435e-01 3.448276e-02 0.000000e+00
9.637681e-01 3.448276e-02 0.000000e+00
1.014493e+00 3.448276e-02 0.000000e+00
1.065217e+00 3.448276e-02 0.000000e+00
1.115942e+00 3.448276e-02 0.000000e+00
1.166667e+00 3.448276e-02 0.000000e+00
1.217391e+00 3.448276e-02 0.000000e+00
1.268116e+00 3.448276e-02 0.000000e+00
1.318841e+00 3.448276e-02 0.000000e+00
1.369565e+00 3.448276e-02 0.000000e+00
1.420290e+00 3.448276e-02 0.000000e+00
1.471014e+00 3.448276e-02 0.000000e+00
1.521739e+00 3.448276e-02 0.000000e+00
1.572464e+00 3.448276e-02 0.000000e+00
1.623188e+00 3.448276e-02 0.000000e+00
1.673913e+00 3.448276e-02 0.000000e+00
1.724638e+00 3.448276e-02 0.000000e+00
1.775362e+00 3.448276e-02 0.000000e+00
1.826087e+00 3.448276e-02 0.000000e+00
1.876812e+00 3.448276e-02 0.000000e+00
1.927536e+00 3.448276e-02 0.000000e+00
1.978261e+00 3.448276e-02 0.000000e+00
2.028986e+00 3.448276e-02 0.000000e+00
2.079710e+00 3.448276e-02 0.000000e+00
2.130435e+00 3.448276e-02 0.000000e+00
2.181159e+00 3.448276e-02 0.000000e+00
2.231884e+00 3.448276e-02 0.000000e+00
2.282609e+00 3.448276e-02 0.000000e+00
2.333333e+00 3.448276e-02 0.000000e+00
2.384058e+00 3.448276e-02 0.000000e+00
2.434783e+00 3.448276e-02 0.000000e+00
2.485507e+00 3.448276e-02 0.000000e+00
2.536232e+00 3.448276e-02 0.000000e+00
2.586957e+00 3.448276e-02 0.000000e+00
2.637681e+00 3.448276e-02 0.000000e+00
2.688406e+00 3.448276e-02 0.000000e+00
2.739130e+00 3.448276e-02 0.000000e+00
2.789855e+00 3.448276e-02 0.000000e+00
2.840580e+00 3.448276e-02 0.000000e+00
2.891304e+00 3.448276e-02 0.000000e+00
2.942029e+00 3.448276e-02 0.000000e+00
2.992754e+00 3.448276e-02 0.000000e+00
3.043478e+00 3.448276e-02 0.000000e+00
3.094203e+00 3.448276e-02 0.000000e+00
3.144928e+00 3.448276e-02 0.000000e+00
3.195652e+00 3.448276e-02 0.000000e+00
3.246377e+00 3.448276e-02 0.000000e+00
3.297101e+00 3.448276e-02 0.000000e+00
3.347826e+00 3.448276e-02 0.000000e+00
3.398551e+00 3.448276e-02 0.000000e+00
3.449275e+00 3.448276e-02 0.000000e+00
3.500000e+00 3.448276e-02 0.000000e+00
0.000000e+00 6.896552e-02 0.000000e+00
5.072464e-02 6.896552e-02 0.000000e+00
1.014493e-01 6.896552e-02 0.000000e+00
1.521739e-01 6.896552e-02 0.000000e+00
2.028986e-01 6.896552e-02 0.000000e+00
2.536232e-01 6.896552e-02 0.000000e+00
3.043478e-01 6.896552e-02 0.000000e+00
3.550725e-01 6.896552e-02 0.000000e+00
4.057971e-01 6.896552e-02 0.000000e+00
4.565217e-01 6.896552e-02 0.000000e+00
5.072464e-01 6.896552e-02 0.000000e+00
5.579710e-01 6.896552e-02 0.000000e+00
6.086957e-01 6.896552e-02 0.000000e+00
6.594203e-01 6.896552e-02 0.000000e+00
7.101449e-01 6.896552e-02 0.000000e+00
7.608696e-01 6.896552e-02 0.000000e+00
8.115942e-01 6.896552e-02 0.000000e+00
8.623188e-01 6.896552e-02 0.000000e+00
9.130435e-01 6.896552e-02 0.000000e+00
9.637681e-01 6.896552e-02 0.000000e+00
1.014493e+00 6.896552e-02 0.000000e+00
1.065217e+00 6.896552e-02 0.000000e+00
1.115942e+00 6.896552e-02 0.000000e+00
1.166667e+00 6.896552e-02 0.000000e+00
1.217391e+00 6.896552e-02 0.000000e+00
1.268116e+00 6.896552e-02 0.000000e+00
1.318841e+00 6.896552e-02 0.000000e+00
1.369565e+00 6.896552e-02 0.000000e+00
1.420290e+00 6.896552e-02 0.000000e+00
1.471014e+00 6.896552e-02 0.000000e+00
1.521739e+00 6.896552e-02 0.000000e+00
1.572464e+00 6.896552e-02 0.000000e+00
1.623188e+00 6.896552e-02 0.000000e+00
1.673913e+00 6.896552e-02 0.000000e+00
1.724638e+00 6.896552e-02 0.000000e+00
1.775362e+00 6.896552e-02 0.000000e+00
1.826087e+00 6.896552e-02 0.000000e+00
1.876812e+00 6.896552e-02 0.000000e+00
1.927536e+00 6.896552e-02 0.000000e+00
1.978261e+00 6.896552e-02 0.000000e+00
2.028986e+00 6.896552e-02 0.000000e+00
2.079710e+00 6.896552e-02 0.000000e+00
2.130435e+00 6.896552e-02 0.000000e+00
2.181159e+00 6.896552e-02 0.000000e+00
2.231884e+00 6.896552e-02 0.000000e+00
2.282609e+00 6.896552e-02 0.000000e+00
2.333333e+00 6.896552e-02 0.000000e+00
2.384058e+00 6.896552e-02 0.000000e+00
2.434783e+00 6.896552e-02 0.000000e+00
2.485507e+00 6.896552e-02 0.000000e+00
2.536232e+00 6.896552e-02 0.000000e+00
2.586957e+00 6.896552e-02 0.000000e+00
2.637681e+00 6.896552e-02 0.000000e+00
2.688406e+00 6.896552e-02 0.000000e+00
2.739130e+00 6.896552e-02 0.000000e+00
2.789855e+00 6.896552e-02 0.000000e+00
2.840580e+00 6.896552e-02 0.000000e+00
2.891304e+00 6.896552e-02 0.000000e+00
2.942029e+00 6.896552e-02 0.000000e+00
2.992754e+00 6.896552e-02 0.000000e+00
3.043478e+00 6.896552e-02 0.000000e+00
3.094203e+00 6.896552e-02 0.000000e+00
3.144928e+00 6.896552e-02 0.000000e+00
3.195652e+00 6.896552e-02 0.000000e+00
3.246377e+00 6.896552e-02 0.000000e+00
3.297101e+00 6.896552e-02 0.000000e+00
3.347826e+00 6.896552e-02 0.000000e+00
3.398551e+00 6.896552e-02 0.000000e+00
3.449275e+00 6.896552e-02 0.000000e+00
3.500000e+00 6.896552e-02 0.000000e+00
0.000000e+00 1.034483e-01 0.000000e+00
5.072464e-02 1.034483e-01 0.000000e+00
1.014493e-01 1.034483e-01 0.000000e+00
1.521739e-01 1.034483e-01 0.000000e+00
2.028986e-01 1.034483e-01 0.000000e+00
2.536232e-01 1.034483e-01 0.000000e+00
3.043478e-01 1.034483e-01 0.000000e+00
3.550725e-01 1.034483e-01 0.000000e+00
4.057971e-01 1.034483e-01 0.000000e+00
4.565217e-01 1.034483e-01 0.000000e+00
5.072464e-01 1.034483e-01 0.000000e+00
5.579710e-01 1.034483e-01 0.000000e+00
6.086957e-01 1.034483e-01 0.000000e+00
6.594203e-01 1.034483e-01 0.000000e+00
7.101449e-01 1.034483e-01 0.000000e+00
7.608696e-01 1.034483e-01 0.000000e+00
8.115942e-01 1.034483e-01 0.000000e+00
8.623188e-01 1.034483e-01 0.000000e+00
9.130435e-01 1.034483e-01 0.000000e+00
9.637681e-01 1.034483e-01 0.000000e+00
1.014493e+00 1.034483e-01 0.000000e+00
1.065217e+00 1.034483e-01 0.000000e+00
1.115942e+00 1.034483e-01 0.000000e+00
1.166667e+00 1.034483e-01 0.000000e+00
1.217391e+00 1.034483e-01 0.000000e+00
1.268116e+00 1.034483e-01 0.000000e+00
1.318841e+00 1.034483e-01 0.000000e+00
1.369565e+00 1.034483e-01 0.000000e+00
1.420290e+00 1.034483e-01 0.000000e+00
1.471014e+00 1.034483e-01 0.000000e+00
1.521739e+00 1.034483e-01 0.000000e+00
1.572464e+00 1.034483e-01 0.000000e+00
1.623188e+00 1.034483e-01 0.000000e+00
1.673913e+00 1.034483e-01 0.000000e+00
1.724638e+00 1.034483e-01 0.000000e+00
1.775362e+00 1.034483e-01 0.000000e+00
1.826087e+00 1.034483e-01 0.000000e+00
1.876812e+00 1.034483e-01 0.000000e+00
1.927536e+00 1.034483e-01 0.000000e+00
1.978261e+00 1.034483e-01 0.000000e+00
2.028986e+00 1.034483e-01 0.000000e+00
2.079710e+00 1.034483e-01 0.000000e+00
2.130435e+00 1.034483e-01 0.000000e+00
[...]
POINT_DATA 2100
SCALARS RES_Cont double
LOOKUP_TABLE default
0.000000e+00
0.000000e+00
0.000000e+00
0.000000e+00
0.000000e+00
0.000000e+00
0.000000e+00
0.000000e+00
0.000000e+00
0.000000e+00
0.000000e+00
0.000000e+00
0.000000e+00
0.000000e+00
0.000000e+00
0.000000e+00
0.000000e+00
0.000000e+00
0.000000e+00
0.000000e+00
0.000000e+00
0.000000e+00
0.000000e+00
0.000000e+00
0.000000e+00
0.000000e+00
0.000000e+00
0.000000e+00
0.000000e+00
0.000000e+00
0.000000e+00
0.000000e+00
0.000000e+00
0.000000e+00
0.000000e+00
0.000000e+00
0.000000e+00
0.000000e+00
0.000000e+00
0.000000e+00
0.000000e+00
0.000000e+00
0.000000e+00
0.000000e+00
0.000000e+00
0.000000e+00
0.000000e+00
0.000000e+00
0.000000e+00
0.000000e+00
0.000000e+00
0.000000e+00
0.000000e+00
0.000000e+00
0.000000e+00
0.000000e+00
0.000000e+00
0.000000e+00
0.000000e+00
0.000000e+00
0.000000e+00
0.000000e+00
0.000000e+00
0.000000e+00
0.000000e+00
0.000000e+00
0.000000e+00
0.000000e+00
0.000000e+00
0.000000e+00
0.000000e+00
4.698404e-18
6.786609e-18
5.173018e-18
2.851350e-18
5.869046e-18
1.498559e-18
2.503267e-18
5.831173e-18
5.140845e-18
6.206192e-18
2.043262e-18
2.533669e-18
3.753117e-18
2.517636e-18
2.238900e-18
4.794729e-18
5.801130e-18
3.648320e-18
3.145073e-18
2.958192e-17
1.756020e-16
8.827785e-16
4.257249e-15
1.928336e-14
8.229127e-14
3.305156e-13
1.248863e-12
4.438994e-12
1.485102e-11
4.683245e-11
1.394905e-10
3.933513e-10
1.052664e-09
2.679168e-09
6.496394e-09
1.502761e-08
3.319613e-08
7.008118e-08
1.414900e-07
2.733738e-07
5.058540e-07
8.972434e-07
1.527024e-06
2.496413e-06
3.925125e-06
5.943312e-06
8.678613e-06
1.223942e-05
1.669683e-05
2.206845e-05
2.830751e-05
3.529968e-05
4.286856e-05
5.078905e-05
5.880623e-05
6.665659e-05
7.408840e-05
8.087878e-05
8.684584e-05
9.185551e-05
9.582349e-05
9.871306e-05
1.005301e-04
1.013165e-04
1.011425e-04
1.000992e-04
9.829135e-05
9.583147e-05
0.000000e+00
0.000000e+00
2.096617e-18
2.081499e-18
2.893700e-18
5.367266e-18
3.935137e-18
5.581655e-18
3.333714e-18
-2.599237e-19
-4.408705e-19
2.528172e-18
-5.967151e-19
1.848333e-18
1.924391e-18
-9.863137e-19
1.300975e-18
9.816012e-19
2.742509e-18
2.902073e-18
1.118434e-18
3.439860e-17
2.142198e-16
1.044139e-15
4.955514e-15
2.212420e-14
9.286646e-14
3.655647e-13
1.350183e-12
4.685455e-12
1.531135e-11
4.725770e-11
1.382119e-10
3.842233e-10
1.017941e-09
2.575123e-09
6.227797e-09
1.440784e-08
3.189248e-08
6.755036e-08
1.369153e-07
2.656221e-07
4.934725e-07
8.785154e-07
1.500094e-06
2.459482e-06
3.876692e-06
5.882447e-06
8.605190e-06
1.215430e-05
1.660189e-05
2.196657e-05
2.820236e-05
3.519544e-05
4.276966e-05
5.069986e-05
5.873085e-05
6.659868e-05
7.405111e-05
8.086473e-05
8.685714e-05
9.189383e-05
9.589004e-05
9.880865e-05
1.006552e-04
1.014711e-04
1.013263e-04
1.003114e-04
9.853093e-05
9.609700e-05
0.000000e+00
0.000000e+00
5.352912e-18
1.331129e-18
5.073073e-18
6.588508e-18
4.948418e-18
1.821834e-18
5.339137e-18
2.962163e-18
8.512849e-19
-6.153960e-18
5.636150e-18
-5.881793e-19
-2.334072e-18
1.331330e-18
2.418576e-18
-5.970743e-19
3.605423e-18
6.781372e-19
4.767938e-18
4.461281e-17
2.540210e-16
1.318587e-15
6.198947e-15
2.715471e-14
1.110833e-13
4.243579e-13
1.516676e-12
5.086337e-12
1.607047e-11
4.805843e-11
1.366701e-10
3.711773e-10
9.659049e-10
2.413577e-09
5.796572e-09
1.337964e-08
2.966057e-08
6.308966e-08
1.286438e-07
2.513067e-07
4.702328e-07
8.429683e-07
1.448655e-06
2.388806e-06
3.784194e-06
5.766818e-06
8.466822e-06
1.199552e-05
1.642699e-05
2.178153e-05
2.801443e-05
3.501257e-05
4.259989e-05
5.055083e-05
5.860940e-05
6.651065e-05
7.400129e-05
8.085689e-05
8.689415e-05
9.197779e-05
9.602238e-05
9.899023e-05
1.008863e-04
1.017515e-04
1.016552e-04
1.006875e-04
9.895230e-05
9.656120e-05
0.000000e+00
0.000000e+00
1.538739e-18
-1.590033e-19
-1.431363e-18
3.662899e-19
-1.092761e-18
5.598687e-18
4.998744e-18
4.153177e-18
5.274282e-18
5.182287e-18
4.325171e-18
4.575802e-19
3.770726e-18
6.957188e-20
2.805737e-18
3.855897e-18
4.468616e-18
5.790373e-18
7.573906e-18
6.861663e-17
3.482050e-16
1.732814e-15
7.993963e-15
3.411339e-14
1.353207e-13
4.996602e-13
1.722713e-12
5.569682e-12
1.697381e-11
4.903924e-11
1.350921e-10
3.567267e-10
9.068218e-10
2.225584e-09
5.280522e-09
1.211055e-08
2.681440e-08
5.721156e-08
1.173947e-07
2.312669e-07
4.368694e-07
7.908661e-07
1.372057e-06
2.282420e-06
3.644134e-06
5.591502e-06
8.257635e-06
1.175710e-05
1.616707e-05
2.151038e-05
2.774396e-05
3.475534e-05
4.236809e-05
5.035551e-05
5.845992e-05
6.641447e-05
7.396399e-05
8.088238e-05
8.698497e-05
9.213540e-05
9.624740e-05
9.928262e-05
1.012455e-04
1.021763e-04
1.021437e-04
1.012375e-04
9.956083e-05
9.722465e-05
0.000000e+00
0.000000e+00
6.838393e-18
3.966224e-18
5.482635e-18
-1.597105e-19
2.551800e-18
3.601318e-18
3.504838e-18
5.241829e-18
6.206694e-19
1.932293e-18
4.989106e-18
5.353767e-18
-2.491934e-19
2.868982e-18
-2.039272e-18
3.183198e-18
9.009556e-19
-9.720682e-19
1.395880e-17
8.854656e-17
4.873896e-16
2.288586e-15
1.027389e-14
4.259495e-14
1.634948e-13
5.832977e-13
1.942126e-12
6.065523e-12
1.787050e-11
4.997325e-11
1.334604e-10
3.423899e-10
8.481017e-10
2.036146e-09
4.748938e-09
1.076608e-08
2.370032e-08
5.055267e-08
1.041896e-07
2.069075e-07
3.949656e-07
7.234797e-07
1.270486e-06
2.138514e-06
3.451922e-06
5.348766e-06
7.967039e-06
1.142660e-05
1.580946e-05
2.114218e-05
2.738376e-05
3.442203e-05
4.207927e-05
5.012623e-05
5.830206e-05
6.633652e-05
7.397129e-05
8.097767e-05
8.716896e-05
9.240738e-05
9.660574e-05
9.972508e-05
1.017694e-04
1.027786e-04
1.028211e-04
1.019859e-04
1.003760e-04
9.810151e-05
0.000000e+00
0.000000e+00
4.717546e-18
4.054397e-18
6.681851e-20
-4.064253e-18
2.886442e-18
6.275167e-19
3.874693e-18
4.852738e-18
8.740456e-19
3.077198e-18
4.248222e-18
2.071970e-18
3.142212e-18
1.877342e-18
-5.668021e-19
3.117936e-18
4.009856e-18
6.078088e-20
1.419117e-17
1.323833e-16
6.232721e-16
2.975626e-15
1.295367e-14
5.198628e-14
1.931022e-13
6.667728e-13
2.150550e-12
6.513650e-12
1.863391e-11
5.065016e-11
1.316001e-10
3.287426e-10
7.938028e-10
1.861288e-09
4.252296e-09
9.482499e-09
2.064088e-08
4.378668e-08
9.026818e-08
1.802223e-07
3.472700e-07
6.439151e-07
1.146450e-06
1.957508e-06
3.204159e-06
5.029948e-06
7.580527e-06
1.098432e-05
1.533128e-05
2.065383e-05
2.691397e-05
3.399932e-05
4.172926e-05
4.986969e-05
5.815391e-05
6.630581e-05
7.406186e-05
8.118920e-05
8.749819e-05
9.284919e-05
9.715407e-05
1.003735e-04
1.025116e-04
1.036083e-04
1.037322e-04
1.029722e-04
1.014310e-04
9.921863e-05
0.000000e+00
0.000000e+00
2.469825e-18
9.284239e-19
2.973934e-18
4.454606e-18
2.230970e-18
2.356244e-18
1.402770e-18
4.922907e-18
2.189548e-18
3.818777e-18
3.698673e-18
5.368563e-18
4.726235e-18
1.325912e-18
3.330542e-18
1.579668e-18
4.031957e-18
6.893367e-18
2.488086e-17
1.713553e-16
8.296775e-16
3.750578e-15
1.581939e-14
6.151458e-14
2.214666e-13
7.423180e-13
2.328111e-12
6.869308e-12
1.917381e-11
5.090793e-11
1.292747e-10
3.156602e-10
7.449855e-10
1.707571e-09
3.816776e-09
8.344649e-09
1.787164e-08
3.748466e-08
7.684691e-08
1.534863e-07
2.974928e-07
5.573593e-07
1.005917e-06
1.744411e-06
2.902151e-06
4.629459e-06
7.082963e-06
1.040453e-05
1.469739e-05
2.000433e-05
2.629286e-05
3.345060e-05
4.129191e-05
4.957420e-05
5.802058e-05
6.634477e-05
7.427437e-05
8.156965e-05
8.803635e-05
9.353229e-05
9.796838e-05
1.013055e-04
1.035486e-04
1.047387e-04
1.049454e-04
1.042586e-04
1.027814e-04
1.006241e-04
0.000000e+00
0.000000e+00
-1.416097e-18
5.664500e-18
5.631462e-18
4.543898e-18
2.410713e-19
3.471587e-18
5.617729e-19
4.278533e-18
4.060368e-18
9.044268e-19
4.713289e-18
2.550337e-18
1.523278e-18
4.555469e-18
5.022614e-18
-2.350376e-18
4.014676e-18
9.336636e-18
4.276664e-17
2.079734e-16
1.026489e-15
4.567969e-15
1.866178e-14
7.035684e-14
2.461825e-13
8.037141e-13
2.460984e-12
7.104858e-12
1.943808e-11
5.064559e-11
1.262707e-10
3.026795e-10
7.008145e-10
1.574497e-09
3.447229e-09
7.382799e-09
1.550977e-08
3.200486e-08
6.484743e-08
1.287425e-07
2.495686e-07
4.703842e-07
8.582924e-07
1.510374e-06
2.555846e-06
4.151264e-06
6.466683e-06
9.663172e-06
1.386530e-05
1.913461e-05
2.545058e-05
3.270368e-05
4.070212e-05
4.919025e-05
5.787439e-05
6.645092e-05
7.463208e-05
8.216623e-05
8.885119e-05
9.454051e-05
9.914390e-05
1.026231e-04
1.049852e-04
1.062740e-04
1.065617e-04
1.059406e-04
1.045158e-04
1.023988e-04
0.000000e+00
0.000000e+00
5.095288e-18
5.888766e-18
2.957186e-18
4.167021e-18
3.445834e-18
5.296600e-18
2.555416e-18
2.943445e-18
5.500543e-18
-2.782929e-18
2.145511e-18
9.159879e-19
1.316026e-18
5.022680e-18
6.240877e-18
-1.297770e-18
2.679571e-18
4.960723e-18
5.630901e-17
2.671550e-16
1.232507e-15
5.350310e-15
2.122308e-14
7.778635e-14
2.653717e-13
8.469195e-13
2.541733e-12
7.208520e-12
1.940794e-11
4.982117e-11
1.224475e-10
2.892980e-10
6.597086e-10
1.457930e-09
3.135236e-09
6.586686e-09
1.356618e-08
2.746647e-08
5.473770e-08
1.073394e-07
2.066842e-07
3.893904e-07
7.146146e-07
1.271674e-06
2.185263e-06
3.614481e-06
5.742051e-06
8.752325e-06
1.280052e-05
1.797969e-05
2.429409e-05
3.164630e-05
3.984164e-05
4.860830e-05
5.762771e-05
6.656819e-05
7.511565e-05
8.299721e-05
8.999594e-05
9.595713e-05
1.007877e-04
1.044508e-04
1.069570e-04
1.083553e-04
1.087231e-04
1.081578e-04
1.067684e-04
1.046700e-04
0.000000e+00
0.000000e+00
-1.370787e-18
3.178135e-18
-1.325322e-18
2.458750e-18
8.661777e-19
-1.977987e-19
-1.189645e-18
1.775322e-18
4.510852e-18
5.386515e-18
-4.655823e-19
2.905376e-18
4.516404e-18
4.376861e-18
8.922821e-19
2.436307e-18
2.196229e-18
5.624676e-18
6.882283e-17
3.099517e-16
1.445951e-15
6.044098e-15
2.329072e-14
8.325595e-14
2.778886e-13
8.701134e-13
2.568617e-12
7.181014e-12
1.909014e-11
4.844147e-11
1.177508e-10
2.751380e-10
6.201147e-10
1.352859e-09
2.867258e-09
5.925591e-09
1.198524e-08
2.380529e-08
4.655332e-08
8.976019e-08
1.705971e-07
3.189707e-07
5.846523e-07
1.045845e-06
1.817171e-06
3.053374e-06
4.944025e-06
7.695464e-06
1.149972e-05
1.649555e-05
2.273129e-05
3.014079e-05
3.853984e-05
4.764447e-05
5.710561e-05
6.655067e-05
7.562301e-05
8.401247e-05
9.147420e-05
9.783616e-05
1.029975e-04
1.069212e-04
1.096229e-04
1.111593e-04
1.116168e-04
1.111014e-04
1.097301e-04
1.076244e-04
0.000000e+00
0.000000e+00
-1.891593e-18
7.619291e-19
2.619915e-19
3.805045e-18
1.474318e-18
-8.202907e-19
3.644867e-18
6.916770e-18
1.927897e-18
2.449347e-18
3.036962e-18
-1.681002e-18
4.782259e-18
5.962484e-18
-7.309926e-19
-2.278102e-18
-3.261840e-19
9.813304e-18
7.679793e-17
3.685883e-16
1.628167e-15
6.542900e-15
2.471475e-14
8.649435e-14
2.833599e-13
8.734162e-13
2.544200e-12
7.031970e-12
1.850890e-11
4.654881e-11
1.122041e-10
2.599995e-10
5.808664e-10
1.254931e-09
2.630026e-09
5.364515e-09
1.068639e-08
2.086291e-08
4.004723e-08
7.578012e-08
1.415682e-07
2.610810e-07
4.744660e-07
8.468340e-07
1.477863e-06
2.509683e-06
4.128295e-06
6.553008e-06
1.001022e-05
1.469290e-05
2.071395e-05
2.806662e-05
3.660510e-05
4.605268e-05
5.603541e-05
6.613143e-05
7.592281e-05
8.503875e-05
9.318381e-05
1.001503e-04
1.058173e-04
1.101411e-04
1.131410e-04
1.148835e-04
1.154681e-04
1.150147e-04
1.136535e-04
1.115175e-04
0.000000e+00
0.000000e+00
5.989811e-18
1.603823e-18
2.139769e-18
4.990337e-18
2.894254e-18
1.099211e-18
5.592327e-18
4.559105e-18
-1.027297e-18
3.867027e-18
-2.430362e-19
2.431711e-18
1.216913e-18
2.761904e-18
4.882812e-18
4.241954e-18
3.436418e-18
1.231538e-17
8.455313e-17
4.022092e-16
1.748249e-15
6.905482e-15
2.543071e-14
8.740091e-14
2.820587e-13
8.584096e-13
2.473952e-12
6.776523e-12
1.769914e-11
4.420847e-11
1.058895e-10
2.438489e-10
5.412656e-10
1.161008e-09
2.412986e-09
4.873072e-09
9.591912e-09
1.846164e-08
3.486096e-08
6.478598e-08
1.188020e-07
2.153044e-07
3.856788e-07
6.818244e-07
1.185875e-06
2.020555e-06
3.356497e-06
5.410787e-06
8.430572e-06
1.265841e-05
1.828256e-05
2.538354e-05
3.389334e-05
4.358223e-05
5.407961e-05
6.492342e-05
7.562371e-05
8.572358e-05
9.484486e-05
1.027128e-04
1.091613e-04
1.141230e-04
1.176118e-04
1.197022e-04
1.205094e-04
1.201729e-04
1.188430e-04
1.166713e-04
0.000000e+00
0.000000e+00
6.253642e-18
3.474263e-18
1.539933e-18
1.296364e-18
2.459618e-18
1.670982e-18
-1.178979e-18
4.301429e-18
5.091847e-18
-0.000000e+00
-4.012380e-18
4.462276e-18
6.418223e-18
-2.279199e-18
4.733216e-18
4.256888e-18
5.751080e-18
1.154660e-17
9.852715e-17
4.324569e-16
1.819620e-15
7.030494e-15
2.543669e-14
8.616933e-14
2.746813e-13
8.275152e-13
2.364931e-12
6.432570e-12
1.670089e-11
4.149856e-11
9.892901e-11
2.267831e-10
5.010287e-10
1.069170e-09
2.208822e-09
4.428533e-09
8.639416e-09
1.644651e-08
3.064493e-08
5.606826e-08
1.010362e-07
1.797891e-07
3.164495e-07
5.511226e-07
9.485269e-07
1.608738e-06
2.677968e-06
4.354928e-06
6.886208e-06
1.054404e-05
1.558361e-05
2.218500e-05
3.039386e-05
4.008023e-05
5.093178e-05
6.248696e-05
7.419930e-05
8.551433e-05
9.593895e-05
1.050892e-04
1.127114e-04
1.186800e-04
1.229799e-04
1.256806e-04
1.269094e-04
1.268284e-04
1.256147e-04
1.234475e-04
0.000000e+00
0.000000e+00
1.869602e-18
4.073716e-18
4.564227e-18
2.080138e-18
5.055917e-18
2.327569e-18
3.233605e-18
2.834370e-19
4.698591e-18
1.985935e-18
4.584203e-18
3.656420e-18
4.396679e-18
4.898365e-18
6.061262e-18
2.630931e-18
1.981048e-18
2.287193e-17
7.735293e-17
4.504548e-16
1.824363e-15
6.950655e-15
2.482800e-14
8.306213e-14
2.621939e-13
7.836304e-13
2.224868e-12
6.018846e-12
1.555580e-11
3.850255e-11
9.146721e-11
2.089896e-10
4.601888e-10
9.784919e-10
2.013073e-09
4.015631e-09
7.784240e-09
1.469978e-08
2.711463e-08
4.899545e-08
8.699303e-08
1.522217e-07
2.631774e-07
4.503687e-07
7.632632e-07
1.279841e-06
2.118074e-06
3.446799e-06
5.490891e-06
8.523559e-06
1.283883e-05
1.870195e-05
2.628421e-05
3.559877e-05
4.645907e-05
5.847743e-05
7.110860e-05
8.372697e-05
9.571557e-05
1.065436e-04
1.158170e-04
1.232972e-04
1.288932e-04
1.326362e-04
1.346464e-04
1.351011e-04
1.342065e-04
1.321768e-04
0.000000e+00
0.000000e+00
1.904859e-18
1.675988e-19
-4.137810e-19
5.319616e-18
6.646131e-18
3.334743e-18
4.423521e-18
6.784430e-18
1.540100e-18
4.056968e-19
1.300218e-18
3.013283e-18
9.800731e-19
-1.639135e-19
2.961997e-18
5.452567e-18
3.151928e-18
1.764937e-17
9.320993e-17
4.509898e-16
1.786226e-15
6.715617e-15
2.364616e-14
7.843512e-14
2.456814e-13
7.297452e-13
2.061415e-12
5.553665e-12
1.430466e-11
3.530416e-11
8.365945e-11
1.907124e-10
4.189990e-10
8.887786e-10
1.823467e-09
3.625144e-09
6.997116e-09
1.313985e-08
2.406238e-08
4.307875e-08
7.560659e-08
1.304626e-07
2.219652e-07
3.733021e-07
6.217454e-07
1.026285e-06
1.677850e-06
2.711199e-06
4.315595e-06
6.738748e-06
1.027647e-05
1.524104e-05
2.190635e-05
3.043739e-05
4.082207e-05
5.282860e-05
6.600716e-05
7.974056e-05
9.333129e-05
1.061008e-04
1.174753e-04
1.270407e-04
1.345612e-04
1.399682e-04
1.433286e-04
1.448060e-04
1.446220e-04
1.430248e-04
0.000000e+00
0.000000e+00
5.664342e-18
6.091593e-18
5.847047e-18
-1.468604e-18
6.730044e-19
2.803829e-18
-2.268142e-18
-8.105601e-20
-4.057054e-18
6.257981e-18
5.050527e-18
3.268288e-18
-0.000000e+00
7.904827e-18
3.472940e-18
8.302476e-18
6.333139e-18
1.136907e-17
9.714379e-17
4.122452e-16
1.701603e-15
6.328581e-15
2.208109e-14
7.264848e-14
2.262281e-13
6.687391e-13
1.881847e-12
5.054283e-12
1.298590e-11
3.198410e-11
7.566269e-11
1.722250e-10
3.778502e-10
8.003297e-10
1.639276e-09
3.252255e-09
6.260491e-09
1.171417e-08
2.134760e-08
3.797182e-08
6.608261e-08
1.128129e-07
1.894412e-07
3.137839e-07
5.139408e-07
8.339650e-07
1.341970e-06
2.140719e-06
3.379605e-06
5.264897e-06
8.062584e-06
1.208618e-05
1.766252e-05
2.507381e-05
3.448382e-05
4.586657e-05
5.896172e-05
7.327616e-05
8.813730e-05
1.027860e-04
1.164833e-04
1.286051e-04
1.387025e-04
1.465251e-04
1.520080e-04
1.552383e-04
1.564105e-04
1.557832e-04
0.000000e+00
0.000000e+00
5.957899e-18
-1.974513e-18
1.267460e-18
4.776683e-18
1.639715e-18
-2.106024e-18
-4.052626e-20
4.949604e-18
1.788159e-18
5.703583e-18
5.068050e-18
2.297667e-18
1.384484e-17
7.449058e-18
9.141834e-18
1.050998e-17
3.765267e-18
1.207951e-17
9.245944e-17
3.921710e-16
1.567180e-15
5.806450e-15
2.020161e-14
6.606737e-14
2.048165e-13
6.032709e-13
1.692774e-12
4.536325e-12
1.163492e-11
2.861811e-11
6.762909e-11
1.538100e-10
3.372073e-10
7.137471e-10
1.460777e-09
2.895143e-09
5.565039e-09
1.039136e-08
1.888088e-08
3.344436e-08
5.787100e-08
9.804303e-08
1.630278e-07
2.667682e-07
4.307076e-07
6.878115e-07
1.088527e-06
1.709119e-06
2.662326e-06
4.109112e-06
6.268353e-06
9.418856e-06
1.388627e-05
2.000812e-05
2.807520e-05
3.825664e-05
5.052670e-05
6.461704e-05
8.001476e-05
9.601350e-05
1.118069e-04
1.266000e-04
1.397106e-04
1.506392e-04
1.590978e-04
1.650024e-04
1.684382e-04
1.696135e-04
0.000000e+00
0.000000e+00
2.565292e-18
2.458360e-18
6.291988e-18
6.113205e-18
2.207126e-18
2.350364e-18
4.787182e-18
5.120986e-18
2.444959e-18
4.252524e-18
2.299222e-18
4.783937e-18
1.325600e-17
-1.497499e-18
6.178808e-18
7.872597e-18
2.686557e-18
1.572922e-17
7.391495e-17
3.638936e-16
1.438419e-15
5.258850e-15
1.811552e-14
5.901776e-14
1.823487e-13
5.356548e-13
1.500079e-12
4.013855e-12
1.028369e-11
2.527556e-11
5.970153e-11
1.357436e-10
2.975606e-10
6.297901e-10
1.288845e-09
2.553875e-09
4.906839e-09
9.154422e-09
1.660883e-08
2.935099e-08
5.061057e-08
8.531612e-08
1.409020e-07
2.285132e-07
3.648324e-07
5.748597e-07
8.960890e-07
1.384574e-06
2.123250e-06
3.232355e-06
4.880706e-06
7.294750e-06
1.076010e-05
1.560856e-05
2.218423e-05
3.078658e-05
4.159691e-05
5.460455e-05
6.955542e-05
8.594364e-05
1.030553e-04
1.200567e-04
1.361063e-04
1.504607e-04
1.625543e-04
1.720386e-04
1.787821e-04
1.828418e-04
0.000000e+00
0.000000e+00
6.175250e-18
5.007900e-18
-1.745810e-18
4.656840e-19
5.389098e-18
4.949125e-18
-4.064410e-19
1.793356e-18
3.109040e-18
6.080868e-18
8.916305e-18
8.957296e-18
1.016087e-17
8.525730e-18
6.455018e-18
3.276974e-18
8.333076e-18
9.692419e-18
8.533135e-17
3.099176e-16
1.265137e-15
4.638505e-15
1.592818e-14
5.179487e-14
1.595923e-13
4.679875e-13
1.308842e-12
3.499151e-12
8.960403e-12
2.201842e-11
5.201002e-11
1.182835e-10
2.593880e-10
5.492661e-10
1.124646e-09
2.229591e-09
4.285283e-09
7.995589e-09
1.450189e-08
2.560454e-08
4.407430e-08
7.408780e-08
1.218401e-07
1.964211e-07
3.110967e-07
4.852143e-07
7.470506e-07
1.138013e-06
1.718632e-06
2.576634e-06
3.836888e-06
5.671993e-06
8.310686e-06
1.203923e-05
1.718946e-05
2.410753e-05
3.310084e-05
4.436831e-05
5.792771e-05
7.356078e-05
9.079630e-05
1.089423e-04
1.271640e-04
1.445896e-04
1.604189e-04
1.740108e-04
1.849353e-04
1.929858e-04
0.000000e+00
0.000000e+00
5.678821e-18
5.560967e-18
4.261580e-18
2.228272e-18
3.488313e-18
6.096517e-18
-1.630630e-19
-4.911310e-19
8.223650e-19
5.454292e-18
1.311904e-17
1.000588e-17
3.012384e-18
8.810921e-18
8.157234e-18
1.061303e-17
6.957076e-18
1.025426e-17
5.866801e-17
2.837992e-16
1.098875e-15
4.010168e-15
1.375296e-14
4.459555e-14
1.372334e-13
4.019572e-13
1.123518e-12
3.002753e-12
7.689366e-12
1.890054e-11
4.466842e-11
1.016596e-10
2.231275e-10
4.729510e-10
9.694163e-10
1.923922e-09
3.701573e-09
6.912590e-09
1.254555e-08
2.215577e-08
3.812536e-08
6.401676e-08
1.050518e-07
1.687677e-07
2.659332e-07
4.118638e-07
6.283435e-07
9.464510e-07
1.410663e-06
2.084612e-06
3.058715e-06
4.459446e-06
6.459108e-06
9.283586e-06
1.321388e-05
1.857584e-05
2.571271e-05
3.493777e-05
4.647040e-05
6.036668e-05
7.646227e-05
9.434636e-05
1.133796e-04
1.327567e-04
1.516010e-04
1.690697e-04
1.844471e-04
1.972086e-04
0.000000e+00
0.000000e+00
6.547324e-18
5.283329e-18
-2.430404e-19
4.379848e-18
5.120624e-18
6.197288e-18
-2.293030e-18
2.962927e-18
1.025852e-17
9.643424e-18
1.135391e-17
4.356179e-18
6.635763e-18
9.426455e-18
8.133610e-18
7.762160e-18
1.222116e-17
1.245902e-18
7.144886e-17
2.257394e-16
9.570788e-16
3.390876e-15
1.162357e-14
3.766908e-14
1.158066e-13
3.390909e-13
9.476344e-13
2.533344e-12
6.490775e-12
1.596676e-11
3.777231e-11
8.606633e-11
1.891556e-10
4.015313e-10
8.243115e-10
1.638587e-09
3.157697e-09
5.906102e-09
1.073408e-08
1.897893e-08
3.268488e-08
5.489621e-08
9.004268e-08
1.444464e-07
2.269975e-07
3.500794e-07
5.308726e-07
7.932331e-07
1.170417e-06
1.708978e-06
2.474155e-06
3.556917e-06
5.082421e-06
7.218876e-06
1.018467e-05
1.425019e-05
1.972966e-05
2.695820e-05