# vtk DataFile Version 3.0
Resultado Projeto 3
ASCII
DATASET STRUCTURED_GRID
DIMENSIONS 70 30 1 
POINTS 2100 double
0.000000e+00 0.000000e+00 0.000000e+00
5.072464e-02 0.000000e+00 0.000000e+00
1.014493e-01 0.000000e+00 0.000000e+00
1.521739e-01 0.000000e+00 0.000000e+00
2.028986e-01 0.000000e+00 0.000000e+00
2.536232e-01 0.000000e+00 0.000000e+00
3.043478e-01 0.000000e+00 0.000000e+00
3.550725e-01 0.000000e+00 0.000000e+00
4.057971e-01 0.000000e+00 0.000000e+00
4.565217e-01 0.000000e+00 0.000000e+00
5.072464e-01 0.000000e+00 0.000000e+00
5.579710e-01 0.000000e+00 0.000000e+00
6.086957e-01 0.000000e+00 0.000000e+00
6.594203e-01 0.000000e+00 0.000000e+00
7.101449e-01 0.000000e+00 0.000000e+00
7.608696e-01 0.000000e+00 0.000000e+00
8.115942e-01 0.000000e+00 0.000000e+00
8.623188e-01 0.000000e+00 0.000000e+00
9.130435e-01 0.000000e+00 0.000000e+00
9.637681e-01 0.000000e+00 0.000000e+00
1.014493e+00 0.000000e+00 0.000000e+00
1.065217e+00 0.000000e+00 0.000000e+00
1.115942e+00 0.000000e+00 0.000000e+00
1.166667e+00 0.000000e+00 0.000000e+00
1.217391e+00 0.000000e+00 0.000000e+00
1.268116e+00 0.000000e+00 0.000000e+00
1.318841e+00 0.000000e+00 0.000000e+00
1.369565e+00 0.000000e+00 0.000000e+00
1.420290e+00 0.000000e+00 0.000000e+00
1.471014e+00 0.000000e+00 0.000000e+00
1.521739e+00 0.000000e+00 0.000000e+00
1.572464e+00 0.000000e+00 0.000000e+00
1.623188e+00 0.000000e+00 0.000000e+00
1.673913e+00 0.000000e+00 0.000000e+00
1.724638e+00 0.000000e+00 0.000000e+00
1.775362e+00 0.000000e+00 0.000000e+00
1.826087e+00 0.000000e+00 0.000000e+00
1.876812e+00 0.000000e+00 0.000000e+00
1.927536e+00 0.000000e+00 0.000000e+00
1.978261e+00 0.000000e+00 0.000000e+00
2.028986e+00 0.000000e+00 0.000000e+00
2.079710e+00 0.000000e+00 0.000000e+00
2.130435e+00 0.000000e+00 0.000000e+00
2.181159e+00 0.000000e+00 0.000000e+00
2.231884e+00 0.000000e+00 0.000000e+00
2.282609e+00 0.000000e+00 0.000000e+00
2.333333e+00 0.000000e+00 0.000000e+00
2.384058e+00 0.000000e+00 0.000000e+00
2.434783e+00 0.000000e+00 0.000000e+00
2.485507e+00 0.000000e+00 0.000000e+00
2.536232e+00 0.000000e+00 0.000000e+00
2.586957e+00 0.000000e+00 0.000000e+00
2.637681e+00 0.000000e+00 0.000000e+00
2.688406e+00 0.000000e+00 0.000000e+00
2.739130e+00 0.000000e+00 0.000000e+00
2.789855e+00 0.000000e+00 0.000000e+00
2.840580e+00 0.000000e+00 0.000000e+00
2.891304e+00 0.000000e+00 0.000000e+00
2.942029e+00 0.000000e+00 0.000000e+00
2.992754e+00 0.000000e+00 0.000000e+00
3.043478e+00 0.000000e+00 0.000000e+00
3.094203e+00 0.000000e+00 0.000000e+00
3.144928e+00 0.000000e+00 0.000000e+00
3.195652e+00 0.000000e+00 0.000000e+00
3.246377e+00 0.000000e+00 0.000000e+00
3.297101e+00 0.000000e+00 0.000000e+00
3.347826e+00 0.000000e+00 0.000000e+00
3.398551e+00 0.000000e+00 0.000000e+00
3.449275e+00 0.000000e+00 0.000000e+00
3.500000e+00 0.000000e+00 0.000000e+00
0.000000e+00 3.448276e-02 0.000000e+00
5.072464e-02 3.448276e-02 0.000000e+00
1.014493e-01 3.448276e-02 0.000000e+00
1.521739e-01 3.448276e-02 0.000000e+00
2.028986e-01 3.448276e-02 0.000000e+00
2.536232e-01 3.448276e-02 0.000000e+00
3.043478e-01 3.448276e-02 0.000000e+00
3.550725e-01 3.448276e-02 0.000000e+00
4.057971e-01 3.448276e-02 0.000000e+00
4.565217e-01 3.448276e-02 0.000000e+00
5.072464e-01 3.448276e-02 0.000000e+00
5.579710e-01 3.448276e-02 0.000000e+00
6.086957e-01 3.448276e-02 0.000000e+00
6.594203e-01 3.448276e-02 0.000000e+00
7.101449e-01 3.448276e-02 0.000000e+00
7.608696e-01 3.448276e-02 0.000000e+00
8.115942e-01 3.448276e-02 0.000000e+00
8.623188e-01 3.448276e-02 0.000000e+00
9.130435e-01 3.448276e-02 0.000000e+00
9.637681e-01 3.448276e-02 0.000000e+00
1.014493e+00 3.448276e-02 0.000000e+00
1.065217e+00 3.448276e-02 0.000000e+00
1.115942e+00 3.448276e-02 0.000000e+00
1.166667e+00 3.448276e-02 0.000000e+00
1.217391e+00 3.448276e-02 0.000000e+00
1.268116e+00 3.448276e-02 0.000000e+00
1.318841e+00 3.448276e-02 0.000000e+00
1.369565e+00 3.448276e-02 0.000000e+00
1.420290e+00 3.448276e-02 0.000000e+00
1.471014e+00 3.448276e-02 0.000000e+00
1.521739e+00 3.448276e-02 0.000000e+00
1.572464e+00 3.448276e-02 0.000000e+00
1.623188e+00 3.448276e-02 0.000000e+00
1.673913e+00 3.448276e-02 0.000000e+00
1.724638e+00 3.448276e-02 0.000000e+00
1.775362e+00 3.448276e-02 0.000000e+00
1.826087e+00 3.448276e-02 0.000000e+00
1.876812e+00 3.448276e-02 0.000000e+00
1.927536e+00 3.448276e-02 0.000000e+00
1.978261e+00 3.448276e-02 0.000000e+00
2.028986e+00 3.448276e-02 0.000000e+00
2.079710e+00 3.448276e-02 0.000000e+00
2.130435e+00 3.448276e-02 0.000000e+00
2.181159e+00 3.448276e-02 0.000000e+00
2.231884e+00 3.448276e-02 0.000000e+00
2.282609e+00 3.448276e-02 0.000000e+00
2.333333e+00 3.448276e-02 0.000000e+00
2.384058e+00 3.448276e-02 0.000000e+00
2.434783e+00 3.448276e-02 0.000000e+00
2.485507e+00 3.448276e-02 0.000000e+00
2.536232e+00 3.448276e-02 0.000000e+00
2.586957e+00 3.448276e-02 0.000000e+00
2.637681e+00 3.448276e-02 0.000000e+00
2.688406e+00 3.448276e-02 0.000000e+00
2.739130e+00 3.448276e-02 0.000000e+00
2.789855e+00 3.448276e-02 0.000000e+00
2.840580e+00 3.448276e-02 0.000000e+00
2.891304e+00 3.448276e-02 0.000000e+00
2.942029e+00 3.448276e-02 0.000000e+00
2.992754e+00 3.448276e-02 0.000000e+00
3.043478e+00 3.448276e-02 0.000000e+00
3.094203e+00 3.448276e-02 0.000000e+00
3.144928e+00 3.448276e-02 0.000000e+00
3.195652e+00 3.448276e-02 0.000000e+00
3.246377e+00 3.448276e-02 0.000000e+00
3.297101e+00 3.448276e-02 0.000000e+00
3.347826e+00 3.448276e-02 0.000000e+00
3.398551e+00 3.448276e-02 0.000000e+00
3.449275e+00 3.448276e-02 0.000000e+00
3.500000e+00 3.448276e-02 0.000000e+00
0.000000e+00 6.896552e-02 0.000000e+00
5.072464e-02 6.896552e-02 0.000000e+00
1.014493e-01 6.896552e-02 0.000000e+00
1.521739e-01 6.896552e-02 0.000000e+00
2.028986e-01 6.896552e-02 0.000000e+00
2.536232e-01 6.896552e-02 0.000000e+00
3.043478e-01 6.896552e-02 0.000000e+00
3.550725e-01 6.896552e-02 0.000000e+00
4.057971e-01 6.896552e-02 0.000000e+00
4.565217e-01 6.896552e-02 0.000000e+00
5.072464e-01 6.896552e-02 0.000000e+00
5.579710e-01 6.896552e-02 0.000000e+00
6.086957e-01 6.896552e-02 0.000000e+00
6.594203e-01 6.896552e-02 0.000000e+00
7.101449e-01 6.896552e-02 0.000000e+00
7.608696e-01 6.896552e-02 0.000000e+00
8.115942e-01 6.896552e-02 0.000000e+00
8.623188e-01 6.896552e-02 0.000000e+00
9.130435e-01 6.896552e-02 0.000000e+00
9.637681e-01 6.896552e-02 0.000000e+00
1.014493e+00 6.896552e-02 0.000000e+00
1.065217e+00 6.896552e-02 0.000000e+00
1.115942e+00 6.896552e-02 0.000000e+00
1.166667e+00 6.896552e-02 0.000000e+00
1.217391e+00 6.896552e-02 0.000000e+00
1.268116e+00 6.896552e-02 0.000000e+00
1.318841e+00 6.896552e-02 0.000000e+00
1.369565e+00 6.896552e-02 0.000000e+00
1.420290e+00 6.896552e-02 0.000000e+00
1.471014e+00 6.896552e-02 0.000000e+00
1.521739e+00 6.896552e-02 0.000000e+00
1.572464e+00 6.896552e-02 0.000000e+00
1.623188e+00 6.896552e-02 0.000000e+00
1.673913e+00 6.896552e-02 0.000000e+00
1.724638e+00 6.896552e-02 0.000000e+00
1.775362e+00 6.896552e-02 0.000000e+00
1.826087e+00 6.896552e-02 0.000000e+00
1.876812e+00 6.896552e-02 0.000000e+00
1.927536e+00 6.896552e-02 0.000000e+00
1.978261e+00 6.896552e-02 0.000000e+00
2.028986e+00 6.896552e-02 0.000000e+00
2.079710e+00 6.896552e-02 0.000000e+00
2.130435e+00 6.896552e-02 0.000000e+00
2.181159e+00 6.896552e-02 0.000000e+00
2.231884e+00 6.896552e-02 0.000000e+00
2.282609e+00 6.896552e-02 0.000000e+00
2.333333e+00 6.896552e-02 0.000000e+00
2.384058e+00 6.896552e-02 0.000000e+00
2.434783e+00 6.896552e-02 0.000000e+00
2.485507e+00 6.896552e-02 0.000000e+00
2.536232e+00 6.896552e-02 0.000000e+00
2.586957e+00 6.896552e-02 0.000000e+00
2.637681e+00 6.896552e-02 0.000000e+00
2.688406e+00 6.896552e-02 0.000000e+00
2.739130e+00 6.896552e-02 0.000000e+00
2.789855e+00 6.896552e-02 0.000000e+00
2.840580e+00 6.896552e-02 0.000000e+00
2.891304e+00 6.896552e-02 0.000000e+00
2.942029e+00 6.896552e-02 0.000000e+00
2.992754e+00 6.896552e-02 0.000000e+00
3.043478e+00 6.896552e-02 0.000000e+00
3.094203e+00 6.896552e-02 0.000000e+00
3.144928e+00 6.896552e-02 0.000000e+00
3.195652e+00 6.896552e-02 0.000000e+00
3.246377e+00 6.896552e-02 0.000000e+00
3.297101e+00 6.896552e-02 0.000000e+00
3.347826e+00 6.896552e-02 0.000000e+00
3.398551e+00 6.896552e-02 0.000000e+00
3.449275e+00 6.896552e-02 0.000000e+00
3.500000e+00 6.896552e-02 0.000000e+00
0.000000e+00 1.034483e-01 0.000000e+00
5.072464e-02 1.034483e-01 0.000000e+00
1.014493e-01 1.034483e-01 0.000000e+00
1.521739e-01 1.034483e-01 0.000000e+00
2.028986e-01 1.034483e-01 0.000000e+00
2.536232e-01 1.034483e-01 0.000000e+00
3.043478e-01 1.034483e-01 0.000000e+00
3.550725e-01 1.034483e-01 0.000000e+00
4.057971e-01 1.034483e-01 0.000000e+00
4.565217e-01 1.034483e-01 0.000000e+00
5.072464e-01 1.034483e-01 0.000000e+00
5.579710e-01 1.034483e-01 0.000000e+00
6.086957e-01 1.034483e-01 0.000000e+00
6.594203e-01 1.034483e-01 0.000000e+00
7.101449e-01 1.034483e-01 0.000000e+00
7.608696e-01 1.034483e-01 0.000000e+00
8.115942e-01 1.034483e-01 0.000000e+00
8.623188e-01 1.034483e-01 0.000000e+00
9.130435e-01 1.034483e-01 0.000000e+00
9.637681e-01 1.034483e-01 0.000000e+00
1.014493e+00 1.034483e-01 0.000000e+00
1.065217e+00 1.034483e-01 0.000000e+00
1.115942e+00 1.034483e-01 0.000000e+00
1.166667e+00 1.034483e-01 0.000000e+00
1.217391e+00 1.034483e-01 0.000000e+00
1.268116e+00 1.034483e-01 0.000000e+00
1.318841e+00 1.034483e-01 0.000000e+00
1.369565e+00 1.034483e-01 0.000000e+00
1.420290e+00 1.034483e-01 0.000000e+00
1.471014e+00 1.034483e-01 0.000000e+00
1.521739e+00 1.034483e-01 0.000000e+00
1.572464e+00 1.034483e-01 0.000000e+00
1.623188e+00 1.034483e-01 0.000000e+00
1.673913e+00 1.034483e-01 0.000000e+00
1.724638e+00 1.034483e-01 0.000000e+00
1.775362e+00 1.034483e-01 0.000000e+00
1.826087e+00 1.034483e-01 0.000000e+00
1.876812e+00 1.034483e-01 0.000000e+00
1.927536e+00 1.034483e-01 0.000000e+00
1.978261e+00 1.034483e-01 0.000000e+00
2.028986e+00 1.034483e-01 0.000000e+00
2.079710e+00 1.034483e-01 0.000000e+00
2.130435e+00 1.034483e-01 0.000000e+00
[...]
POINT_DATA 2100
SCALARS RES_Cont double
LOOKUP_TABLE default
0.000000e+00
0.000000e+00
0.000000e+00
0.000000e+00
0.000000e+00
0.000000e+00
0.000000e+00
0.000000e+00
0.000000e+00
0.000000e+00
0.000000e+00
0.000000e+00
0.000000e+00
0.000000e+00
0.000000e+00
0.000000e+00
0.000000e+00
0.000000e+00
0.000000e+00
0.000000e+00
0.000000e+00
0.000000e+00
0.000000e+00
0.000000e+00
0.000000e+00
0.000000e+00
0.000000e+00
0.000000e+00
0.000000e+00
0.000000e+00
0.000000e+00
0.000000e+00
0.000000e+00
0.000000e+00
0.000000e+00
0.000000e+00
0.000000e+00
0.000000e+00
0.000000e+00
0.000000e+00
0.000000e+00
0.000000e+00
0.000000e+00
0.000000e+00
0.000000e+00
0.000000e+00
0.000000e+00
0.000000e+00
0.000000e+00
0.000000e+00
0.000000e+00
0.000000e+00
0.000000e+00
0.000000e+00
0.000000e+00
0.000000e+00
0.000000e+00
0.000000e+00
0.000000e+00
0.000000e+00
0.000000e+00
0.000000e+00
0.000000e+00
0.000000e+00
0.000000e+00
0.000000e+00
0.000000e+00
0.000000e+00
0.000000e+00
0.000000e+00
0.000000e+00
4.698404e-18
6.786609e-18
3.999195e-18
2.851350e-18
5.869046e-18
1.498559e-18
3.090178e-18
5.831173e-18
5.140845e-18
6.206192e-18
2.043262e-18
2.533669e-18
3.753117e-18
2.517636e-18
2.238900e-18
4.794729e-18
4.040299e-18
3.061350e-18
4.319099e-18
5.941690e-18
-1.407246e-18
9.722007e-19
1.621068e-18
4.623140e-18
3.206846e-18
1.382020e-18
5.212338e-18
3.510274e-18
-4.421117e-18
1.117321e-17
1.649563e-18
2.484861e-18
9.484239e-18
3.509705e-18
1.745646e-17
9.775169e-18
5.075288e-19
3.395185e-19
5.440525e-17
1.891859e-16
7.328638e-16
2.595387e-15
8.940062e-15
2.924727e-14
9.156318e-14
2.740300e-13
7.850395e-13
2.154761e-12
5.673283e-12
1.434660e-11
3.489061e-11
8.171125e-11
1.845123e-10
4.022337e-10
8.475371e-10
1.728063e-09
3.413101e-09
6.536886e-09
1.215189e-08
2.194642e-08
3.853937e-08
6.585987e-08
1.096095e-07
1.777893e-07
2.812534e-07
4.342268e-07
6.547016e-07
9.646082e-07
0.000000e+00
0.000000e+00
2.096617e-18
2.081499e-18
2.893700e-18
5.367266e-18
3.935137e-18
6.168566e-18
3.333713e-18
-2.599237e-19
-1.027782e-18
2.528172e-18
-5.967151e-19
1.848333e-18
1.337476e-18
-9.863137e-19
7.140498e-19
-7.792092e-19
3.329467e-18
2.902073e-18
4.640742e-18
2.206855e-18
6.824738e-18
2.269031e-18
2.594658e-18
1.785306e-18
4.224733e-18
-1.790220e-18
6.523381e-18
-3.270152e-19
3.116279e-18
1.563654e-17
3.139391e-18
9.954056e-19
2.332166e-18
1.187546e-17
-5.877107e-18
-5.561990e-18
8.879660e-18
6.193537e-18
5.275899e-17
1.698792e-16
6.854195e-16
2.510687e-15
8.598450e-15
2.829825e-14
8.884783e-14
2.667955e-13
7.663998e-13
2.108742e-12
5.564173e-12
1.409755e-11
3.434239e-11
8.054601e-11
1.821167e-10
3.974638e-10
8.383276e-10
1.710801e-09
3.381658e-09
6.481180e-09
1.205582e-08
2.178502e-08
3.827509e-08
6.543780e-08
1.089517e-07
1.767886e-07
2.797666e-07
4.320685e-07
6.516396e-07
9.603610e-07
0.000000e+00
0.000000e+00
5.352912e-18
1.331129e-18
5.073073e-18
6.588508e-18
4.948418e-18
1.821834e-18
4.752225e-18
2.962163e-18
2.025108e-18
-6.153960e-18
5.636150e-18
-5.881793e-19
-1.747155e-18
1.331330e-18
7.083695e-20
-5.970743e-19
5.366387e-18
1.852226e-18
2.490261e-18
2.551618e-18
4.456864e-18
6.486317e-19
1.785177e-18
3.086991e-18
8.136181e-19
4.565411e-18
4.740282e-18
7.377423e-18
1.151442e-18
6.273228e-18
5.965202e-18
9.646355e-18
1.001514e-18
2.395235e-17
9.242924e-18
7.249027e-18
7.608910e-19
1.526115e-18
2.431367e-17
1.676864e-16
6.255937e-16
2.337308e-15
8.028678e-15
2.660024e-14
8.403352e-14
2.537795e-13
7.328539e-13
2.025866e-12
5.367434e-12
1.364825e-11
3.335351e-11
7.844435e-11
1.777978e-10
3.888694e-10
8.217458e-10
1.679746e-09
3.325148e-09
6.381167e-09
1.188353e-08
2.149592e-08
3.780225e-08
6.468358e-08
1.077778e-07
1.750050e-07
2.771199e-07
4.282315e-07
6.462031e-07
9.528306e-07
0.000000e+00
0.000000e+00
1.538739e-18
-1.590033e-19
-1.431363e-18
3.662899e-19
-1.092761e-18
4.424864e-18
4.998744e-18
4.153177e-18
5.274282e-18
5.769199e-18
4.325171e-18
4.575802e-19
3.770726e-18
6.957188e-20
5.482446e-18
1.578792e-18
5.055660e-18
2.530757e-19
-2.328875e-18
1.985365e-18
-3.162183e-18
2.799639e-18
-1.624872e-19
2.278409e-18
2.364603e-18
-3.433243e-18
4.099307e-18
1.003535e-17
-3.301805e-18
-3.313524e-19
6.317496e-18
1.334366e-18
-1.756714e-18
1.375800e-17
3.616808e-18
7.167338e-18
-2.493449e-18
1.423316e-17
3.659870e-17
1.406827e-16
5.517724e-16
2.082608e-15
7.240865e-15
2.424157e-14
7.731644e-14
2.355704e-13
6.856456e-13
1.908623e-12
5.088206e-12
1.300881e-11
3.194295e-11
7.544176e-11
1.716203e-10
3.765669e-10
7.979988e-10
1.635264e-09
3.244203e-09
6.237938e-09
1.163688e-08
2.108222e-08
3.712598e-08
6.360552e-08
1.061010e-07
1.724589e-07
2.733446e-07
4.227625e-07
6.384604e-07
9.421141e-07
0.000000e+00
0.000000e+00
6.838393e-18
3.966224e-18
4.895723e-18
-7.466220e-19
2.551800e-18
3.014407e-18
4.091750e-18
5.241829e-18
3.375695e-20
1.345380e-18
4.989106e-18
5.353767e-18
-8.361261e-19
2.868982e-18
-4.387217e-18
2.596153e-18
2.075235e-18
2.551679e-18
-2.532439e-18
3.365094e-18
5.072326e-18
1.056333e-18
4.639243e-18
-1.631259e-19
9.813017e-19
4.921346e-18
1.481321e-17
1.123116e-17
4.309167e-18
8.314359e-19
1.050827e-17
6.021417e-18
1.215662e-17
-5.041534e-18
-3.283638e-18
4.386467e-18
2.408506e-18
3.979123e-18
4.978835e-17
1.098779e-16
4.590557e-16
1.785607e-15
6.293559e-15
2.137362e-14
6.906354e-14
2.128753e-13
6.262500e-13
1.760065e-12
4.732261e-12
1.218971e-11
3.012916e-11
7.156928e-11
1.636344e-10
3.606350e-10
7.672053e-10
1.577529e-09
3.139074e-09
6.051841e-09
1.131634e-08
2.054459e-08
3.624721e-08
6.220493e-08
1.039231e-07
1.691533e-07
2.684451e-07
4.156680e-07
6.284212e-07
9.282264e-07
0.000000e+00
0.000000e+00
4.130635e-18
3.467485e-18
-5.200930e-19
-3.477342e-18
2.886442e-18
1.801340e-18
3.287781e-18
4.852738e-18
8.740456e-19
2.490282e-18
4.248222e-18
2.071970e-18
3.142212e-18
1.877342e-18
-5.668021e-19
3.117936e-18
3.422554e-18
4.761169e-18
2.757141e-18
3.571346e-18
-2.844507e-18
1.628250e-19
6.772245e-18
1.145393e-18
2.133776e-18
2.141005e-18
1.090773e-17
6.467627e-18
3.660207e-18
8.176237e-18
3.596855e-18
-6.120076e-18
5.880008e-19
-9.676390e-19
1.310387e-17
1.232037e-17
9.083611e-19
-5.774786e-18
3.809719e-17
1.116203e-16
3.822230e-16
1.457446e-15
5.281555e-15
1.819617e-14
5.967858e-14
1.867195e-13
5.568597e-13
1.584621e-12
4.308000e-12
1.120666e-11
2.794020e-11
6.687525e-11
1.539209e-10
3.412038e-10
7.295695e-10
1.506850e-09
3.010221e-09
5.823545e-09
1.092287e-08
1.988434e-08
3.516777e-08
6.048432e-08
1.012477e-07
1.650929e-07
2.624276e-07
4.069569e-07
6.160978e-07
9.111839e-07
0.000000e+00
0.000000e+00
2.469825e-18
9.284239e-19
4.147757e-18
4.454606e-18
2.230970e-18
2.356244e-18
1.402770e-18
4.922907e-18
2.189548e-18
4.405697e-18
3.698673e-18
4.781614e-18
4.726235e-18
1.325912e-18
3.917689e-18
4.050431e-19
2.856814e-18
1.338124e-18
6.007125e-18
3.251525e-19
2.361665e-18
1.469278e-18
-8.185632e-19
-2.956287e-18
1.812867e-18
8.600144e-18
-1.659535e-18
1.664811e-19
7.095583e-18
1.255259e-17
1.090179e-18
-7.560727e-19
7.151255e-19
4.085537e-18
2.909375e-18
-3.756383e-18
4.879471e-18
1.426131e-17
2.057251e-17
7.773703e-17
3.192006e-16
1.152331e-15
4.244259e-15
1.488559e-14
4.976247e-14
1.584383e-13
4.803793e-13
1.388281e-12
3.827534e-12
1.008214e-11
2.541675e-11
6.143076e-11
1.426004e-10
3.184731e-10
6.854141e-10
1.423739e-09
2.858433e-09
5.554248e-09
1.045825e-08
1.910409e-08
3.389140e-08
5.844901e-08
9.808201e-08
1.602877e-07
2.553063e-07
3.966478e-07
6.015149e-07
8.910193e-07
0.000000e+00
0.000000e+00
-8.291857e-19
5.077588e-18
6.805284e-18
4.543898e-18
2.410713e-19
3.471587e-18
5.617729e-19
4.278533e-18
4.060368e-18
3.174981e-19
4.713289e-18
2.550337e-18
1.523278e-18
4.555469e-18
4.435292e-18
-2.350376e-18
4.014676e-18
-1.217822e-18
-2.113940e-18
-9.775485e-19
3.593120e-18
-1.638028e-18
1.150420e-17
3.628375e-18
1.092389e-17
7.805702e-18
9.829356e-18
5.847130e-18
5.861021e-18
1.677908e-19
1.260492e-18
1.005534e-17
-3.959136e-18
-2.993115e-18
9.429256e-18
3.398562e-18
-1.172322e-18
3.984324e-18
8.825748e-18
5.982707e-17
2.212446e-16
9.063585e-16
3.305234e-15
1.171808e-14
3.990508e-14
1.295829e-13
4.006302e-13
1.179218e-12
3.307106e-12
8.847343e-12
2.261535e-11
5.533467e-11
1.298411e-10
2.927222e-10
6.351947e-10
1.328925e-09
2.684863e-09
5.245739e-09
9.925209e-09
1.820795e-08
3.242418e-08
5.610780e-08
9.443872e-08
1.547555e-07
2.471052e-07
3.847734e-07
5.847156e-07
8.677883e-07
0.000000e+00
0.000000e+00
5.095288e-18
5.888767e-18
2.370275e-18
4.167021e-18
3.445834e-18
5.296600e-18
2.555416e-18
2.943445e-18
5.500543e-18
-3.369874e-18
2.145511e-18
1.503030e-18
1.903176e-18
5.022680e-18
6.240877e-18
-1.297770e-18
1.461584e-18
4.716753e-18
3.829990e-18
-0.000000e+00
2.294561e-18
-1.480121e-18
7.592345e-18
7.453989e-18
8.642843e-18
8.336109e-18
5.851039e-18
6.785989e-18
1.342980e-17
1.218946e-18
1.018442e-17
-2.990924e-18
1.279518e-17
-1.054642e-19
-2.975682e-18
-1.182389e-18
1.201928e-17
-6.155005e-19
6.242272e-18
4.352970e-17
1.680950e-16
6.215443e-16
2.462741e-15
8.870564e-15
3.076369e-14
1.019236e-13
3.218801e-13
9.674192e-13
2.767802e-12
7.543692e-12
1.961238e-11
4.872105e-11
1.158691e-10
2.643233e-10
5.795127e-10
1.223370e-09
2.491032e-09
4.900400e-09
9.327444e-09
1.720155e-08
3.077457e-08
5.347318e-08
9.033590e-08
1.485219e-07
2.378599e-07
3.713821e-07
5.657645e-07
8.415750e-07
0.000000e+00
0.000000e+00
-1.370787e-18
4.351958e-18
-1.912233e-18
2.458750e-18
8.661777e-19
-1.977987e-19
-1.189645e-18
1.775322e-18
3.923910e-18
5.973491e-18
-4.655823e-19
3.492525e-18
4.516404e-18
4.376861e-18
2.839080e-19
2.436307e-18
2.846963e-18
-2.853096e-18
5.721613e-18
6.231834e-18
9.709894e-18
4.459857e-18
7.791589e-18
3.659507e-18
8.676077e-18
-5.855036e-18
3.520774e-18
1.343669e-17
5.929119e-18
1.431355e-18
5.267060e-18
2.761877e-18
-6.961240e-18
6.120154e-18
-3.166753e-18
-8.516001e-18
1.911786e-18
7.830384e-18
1.196279e-18
4.109992e-17
1.258123e-16
4.691970e-16
1.761874e-15
6.486676e-15
2.279584e-14
7.702683e-14
2.485480e-13
7.639175e-13
2.235060e-12
6.223740e-12
1.650859e-11
4.176990e-11
1.009888e-10
2.337698e-10
5.191479e-10
1.108290e-09
2.278829e-09
4.521163e-09
8.669495e-09
1.609189e-08
2.895323e-08
5.056115e-08
8.579709e-08
1.416208e-07
2.276183e-07
3.565397e-07
5.447498e-07
8.124948e-07
0.000000e+00
0.000000e+00
-1.891593e-18
1.750176e-19
2.619915e-19
3.805045e-18
1.474318e-18
-8.202907e-19
3.644867e-18
6.916770e-18
1.927897e-18
3.036381e-18
3.036962e-18
-1.681002e-18
4.214873e-18
5.962484e-18
-7.309926e-19
-2.278102e-18
-8.154600e-19
3.598212e-18
1.640982e-18
7.411293e-18
5.124699e-18
3.981986e-18
8.989725e-18
7.012940e-18
-5.691673e-18
2.768002e-18
-2.940809e-18
-1.556551e-18
2.400494e-17
-6.575210e-18
-4.639318e-19
2.130912e-18
5.329301e-18
-4.328055e-18
-4.830658e-18
-1.056104e-19
-5.175921e-18
1.782131e-18
4.215088e-18
9.199917e-18
9.923771e-17
3.281380e-16
1.232438e-15
4.568543e-15
1.632615e-14
5.598499e-14
1.843217e-13
5.794772e-13
1.735699e-12
4.948649e-12
1.342950e-11
3.471660e-11
8.560847e-11
2.017263e-10
4.551316e-10
9.852400e-10
2.050574e-09
4.111506e-09
7.956622e-09
1.488700e-08
2.697245e-08
4.739037e-08
8.085021e-08
1.340932e-07
2.164392e-07
3.403283e-07
5.217834e-07
7.806959e-07
0.000000e+00
0.000000e+00
5.989811e-18
2.190735e-18
2.139769e-18
4.403424e-18
3.481169e-18
1.099211e-18
5.592327e-18
4.559105e-18
-4.402703e-19
3.867027e-18
-2.430362e-19
1.823783e-18
1.216913e-18
2.761904e-18
4.882812e-18
4.241954e-18
2.781862e-18
6.239791e-18
8.405866e-18
8.603404e-18
-4.151427e-18
8.830539e-18
7.770306e-18
2.931570e-18
6.378671e-18
-4.203352e-18
4.208755e-20
5.013407e-18
1.032959e-18
3.670187e-18
1.385365e-17
3.620248e-18
4.344347e-18
2.977761e-18
4.942604e-18
5.656246e-18
-4.195833e-18
1.339729e-17
-4.399000e-18
1.093151e-17
7.457175e-17
2.412073e-16
8.704847e-16
3.158021e-15
1.131858e-14
3.932158e-14
1.315534e-13
4.221451e-13
1.294039e-12
3.780712e-12
1.051651e-11
2.784906e-11
7.025901e-11
1.690895e-10
3.888705e-10
8.563027e-10
1.809241e-09
3.675620e-09
7.194801e-09
1.359560e-08
2.484528e-08
4.398068e-08
7.552542e-08
1.259844e-07
2.043890e-07
3.228430e-07
4.969973e-07
7.463565e-07
0.000000e+00
0.000000e+00
6.253642e-18
4.061175e-18
1.539933e-18
7.094508e-19
3.046537e-18
1.670982e-18
-1.178979e-18
4.301429e-18
5.091847e-18
-0.000000e+00
-4.012380e-18
3.894350e-18
6.418223e-18
-2.279199e-18
4.733216e-18
4.256888e-18
4.765180e-18
4.948542e-19
3.477429e-18
1.662017e-18
4.335605e-18
5.100620e-18
1.927803e-18
-2.099524e-18
4.373764e-18
8.337001e-18
4.298787e-18
-2.910040e-18
5.949735e-18
-8.864796e-19
6.059388e-18
-4.967886e-18
1.533909e-18
1.255006e-17
1.751056e-17
-1.049175e-17
3.248745e-18
-4.608758e-18
2.896224e-17
1.681544e-17
4.398627e-17
1.695099e-16
6.079200e-16
2.158897e-15
7.728409e-15
2.684980e-14
9.076427e-14
2.961079e-13
9.266143e-13
2.771706e-12
7.905970e-12
2.147984e-11
5.557577e-11
1.370180e-10
3.222791e-10
7.243789e-10
1.558919e-09
3.218984e-09
6.391208e-09
1.222722e-08
2.258492e-08
4.035127e-08
6.985172e-08
1.173387e-07
1.915349e-07
3.041834e-07
4.705348e-07
7.096758e-07
0.000000e+00
0.000000e+00
1.869602e-18
3.486804e-18
4.564227e-18
3.253970e-18
3.882064e-18
2.327569e-18
3.233605e-18
2.834370e-19
4.698591e-18
1.985935e-18
4.584203e-18
3.656420e-18
3.256799e-18
4.898365e-18
6.061262e-18
2.630931e-18
1.320699e-18
5.635113e-18
5.156862e-18
1.151589e-17
1.071137e-17
5.955212e-18
-1.680640e-18
1.043514e-17
7.919386e-18
1.032926e-17
-5.336680e-18
-7.196331e-18
-1.340548e-18
1.267513e-17
-9.345769e-18
-1.320204e-19
7.441412e-18
1.702037e-18
1.830879e-18
5.569794e-18
-6.614430e-18
1.108052e-17
-4.037334e-18
7.726779e-18
2.483637e-17
1.209032e-16
4.299194e-16
1.473031e-15
5.191653e-15
1.798572e-14
6.100949e-14
2.010486e-13
6.393529e-13
1.952109e-12
5.701636e-12
1.589250e-11
4.221996e-11
1.068620e-10
2.578060e-10
5.934506e-10
1.305465e-09
2.749468e-09
5.555665e-09
1.079355e-08
2.020524e-08
3.651962e-08
6.385329e-08
1.081926e-07
1.779342e-07
2.844391e-07
4.425320e-07
6.708529e-07
0.000000e+00
0.000000e+00
1.904859e-18
1.675988e-19
-4.137810e-19
5.319616e-18
6.646131e-18
3.334743e-18
4.423521e-18
6.784430e-18
1.540100e-18
4.056968e-19
1.300218e-18
3.583364e-18
1.143419e-18
-1.639135e-19
2.961997e-18
5.452567e-18
3.151928e-18
2.497552e-18
7.182844e-18
8.793673e-18
3.693151e-18
-8.408290e-19
1.006160e-17
1.158917e-17
6.031058e-18
6.055635e-18
9.530575e-18
-1.288026e-18
6.298993e-18
1.563114e-18
2.204975e-18
3.834572e-18
-6.082284e-18
-1.902263e-18
-7.401882e-19
5.163554e-18
-1.030077e-19
-1.177992e-18
1.460350e-17
-9.138186e-18
3.600406e-17
8.967233e-17
2.895352e-16
1.016153e-15
3.497014e-15
1.192036e-14
4.027939e-14
1.331598e-13
4.275914e-13
1.326113e-12
3.952190e-12
1.127917e-11
3.074865e-11
7.995736e-11
1.982129e-10
4.685335e-10
1.056961e-09
2.278694e-09
4.703138e-09
9.311939e-09
1.772455e-08
3.250388e-08
5.754868e-08
9.856852e-08
1.636209e-07
2.636681e-07
4.130885e-07
6.300507e-07
0.000000e+00
0.000000e+00
5.664342e-18
6.091593e-18
5.847047e-18
-1.468604e-18
6.730044e-19
3.390912e-18
-2.268142e-18
-8.105601e-20
-4.057054e-18
6.257981e-18
5.050527e-18
3.268288e-18
1.148096e-18
7.904827e-18
3.472940e-18
8.302476e-18
6.333139e-18
-3.176652e-18
8.130239e-18
1.142326e-17
9.927768e-18
5.812568e-18
-4.216009e-18
1.088495e-17
4.242244e-18
7.643089e-18
-2.576527e-18
-7.144847e-18
7.309480e-18
-6.124324e-18
8.160927e-18
-3.862697e-18
2.985878e-18
1.322454e-17
5.620466e-18
-9.628375e-18
6.965977e-18
-1.028703e-18
8.803921e-18
1.275872e-17
1.341358e-17
6.511363e-17
2.085353e-16
7.115214e-16
2.364106e-15
7.912315e-15
2.642105e-14
8.680916e-14
2.794241e-13
8.745842e-13
2.645635e-12
7.699872e-12
2.148517e-11
5.733234e-11
1.460716e-10
3.550578e-10
8.233576e-10
1.822676e-09
3.856345e-09
7.810698e-09
1.517351e-08
2.833217e-08
5.095844e-08
8.847679e-08
1.485975e-07
2.418752e-07
3.822295e-07
5.873410e-07
0.000000e+00
0.000000e+00
5.957899e-18
-2.561428e-18
1.267460e-18
4.776683e-18
1.639715e-18
-1.518767e-18
-4.052626e-20
4.949604e-18
1.788159e-18
5.703583e-18
5.068050e-18
2.297667e-18
1.384484e-17
7.449058e-18
9.141834e-18
1.050998e-17
3.765267e-18
9.311288e-18
-7.144593e-18
-3.493634e-18
4.340518e-18
8.182376e-18
1.139497e-17
1.028118e-17
1.295585e-17
-1.254680e-17
1.626679e-18
8.387714e-18
-7.210271e-18
-2.387654e-18
-7.553954e-18
-1.294206e-18
3.213025e-18
-1.456595e-18
8.298285e-18
1.118862e-17
-6.033190e-18
1.087233e-17
1.355763e-17
1.440753e-17
5.722197e-18
5.190538e-17
1.565936e-16
5.132674e-16
1.620674e-15
5.287968e-15
1.733359e-14
5.623456e-14
1.800470e-13
5.646378e-13
1.722457e-12
5.083890e-12
1.445542e-11
3.946006e-11
1.031468e-10
2.577212e-10
6.148965e-10
1.400510e-09
3.046245e-09
6.333619e-09
1.260572e-08
2.405970e-08
4.412678e-08
7.793658e-08
1.328475e-07
2.190060e-07
3.498745e-07
5.426437e-07
0.000000e+00
0.000000e+00
2.565292e-18
2.458360e-18
5.705039e-18
6.113205e-18
2.207126e-18
1.175182e-18
4.787182e-18
5.120986e-18
2.444959e-18
4.252524e-18
2.299222e-18
4.783937e-18
1.325600e-17
-1.497499e-18
6.178808e-18
7.872597e-18
2.686557e-18
2.943972e-18
7.496787e-18
3.836672e-18
2.594901e-18
-2.005285e-18
-4.540010e-19
8.237520e-19
-5.936272e-18
-3.729069e-18
-2.746804e-19
-3.613225e-18
-6.214916e-18
-6.603139e-20
-1.106666e-18
2.363816e-18
8.147628e-18
1.072224e-18
1.592426e-18
-1.259627e-18
1.254291e-18
-6.001856e-18
1.973427e-17
4.757791e-18
1.091717e-17
4.300725e-17
1.154407e-16
3.799253e-16
1.127183e-15
3.605183e-15
1.144724e-14
3.648628e-14
1.154091e-13
3.600157e-13
1.099852e-12
3.271006e-12
9.423081e-12
2.618731e-11
6.997180e-11
1.792868e-10
4.396689e-10
1.030658e-09
2.308184e-09
4.938931e-09
1.010417e-08
1.978777e-08
3.715567e-08
6.702242e-08
1.163851e-07
1.949862e-07
3.158471e-07
4.956915e-07
0.000000e+00
0.000000e+00
6.175250e-18
5.594832e-18
-1.745810e-18
4.656840e-19
5.389098e-18
4.949125e-18
-4.064410e-19
1.793356e-18
3.109040e-18
6.080868e-18
8.916305e-18
8.957296e-18
1.016087e-17
8.525730e-18
6.455018e-18
3.276974e-18
1.077408e-17
7.248244e-18
2.404294e-18
4.094246e-18
-2.090298e-18
-1.309486e-18
3.696889e-19
9.507506e-18
4.933703e-18
-3.180078e-18
6.904310e-18
1.062047e-17
6.661072e-18
2.754663e-18
6.153504e-19
2.926084e-18
-1.252505e-17
7.634013e-18
7.773575e-18
1.290602e-17
7.345083e-18
-2.761532e-18
-4.039146e-19
6.174602e-18
1.055895e-20
3.834601e-17
9.783757e-17
2.743923e-16
8.218072e-16
2.481597e-15
7.692490e-15
2.387367e-14
7.414551e-14
2.286055e-13
6.947025e-13
2.068123e-12
5.998258e-12
1.687147e-11
4.584479e-11
1.199599e-10
3.014692e-10
7.261271e-10
1.673822e-09
3.689511e-09
7.775020e-09
1.567040e-08
3.023534e-08
5.592653e-08
9.934781e-08
1.698295e-07
2.799736e-07
4.460851e-07
0.000000e+00
0.000000e+00
5.678821e-18
5.560967e-18
4.848686e-18
2.228272e-18
3.488313e-18
6.096517e-18
-1.630630e-19
-4.911310e-19
8.223650e-19
5.454292e-18
1.311904e-17
1.000588e-17
3.012384e-18
8.810921e-18
8.157234e-18
1.061303e-17
8.179835e-18
7.933341e-18
-4.391128e-18
1.203792e-18
-1.996246e-18
3.200808e-18
3.597245e-18
-1.225538e-18
1.416244e-17
-6.513239e-18
5.131722e-18
-6.074356e-18
6.317029e-18
-1.742902e-19
1.417220e-17
5.225494e-18
1.262075e-18
3.030926e-18
2.518594e-18
4.469344e-18
9.262920e-18
1.734237e-18
1.372543e-19
1.015109e-17
1.295623e-17
1.914725e-17
7.512434e-17
2.104982e-16
5.881482e-16
1.753913e-15
5.245823e-15
1.582940e-14
4.802989e-14
1.455842e-13
4.374392e-13
1.295448e-12
3.759321e-12
1.063680e-11
2.922231e-11
7.767091e-11
1.991147e-10
4.910298e-10
1.162336e-09
2.636659e-09
5.725274e-09
1.189426e-08
2.364375e-08
4.500046e-08
8.210004e-08
1.438072e-07
2.422977e-07
3.935097e-07
0.000000e+00
0.000000e+00
5.960393e-18
5.283329e-18
-2.430404e-19
4.379848e-18
5.120624e-18
6.197288e-18
-2.293030e-18
2.962927e-18
1.025852e-17
9.643424e-18
1.135391e-17
4.356179e-18
6.635763e-18
9.426455e-18
8.133610e-18
1.020893e-17
6.712141e-18
4.307863e-18
8.966753e-18
2.007042e-18
2.524884e-18
2.017873e-18
1.133075e-17
1.753718e-18
7.247012e-18
2.529993e-18
5.851937e-18
9.897012e-18
4.837309e-18
9.610666e-19
6.959395e-18
-1.890225e-18
1.539020e-18
1.850154e-17
6.519670e-18
3.125060e-18
1.279787e-17
-9.105102e-19
1.795607e-17
4.393834e-18
3.237856e-18
1.842902e-17
5.271528e-17
1.598751e-16
4.339570e-16
1.246853e-15
3.640970e-15
1.067482e-14
3.151518e-14