# vtk DataFile Version 3.0
Resultado Projeto 3
ASCII
DATASET STRUCTURED_GRID
DIMENSIONS 70 30 1 
POINTS 2100 double
0.000000e+00 0.000000e+00 0.000000e+00
5.072464e-02 0.000000e+00 0.000000e+00
1.014493e-01 0.000000e+00 0.000000e+00
1.521739e-01 0.000000e+00 0.000000e+00
2.028986e-01 0.000000e+00 0.000000e+00
2.536232e-01 0.000000e+00 0.000000e+00
3.043478e-01 0.000000e+00 0.000000e+00
3.550725e-01 0.000000e+00 0.000000e+00
4.057971e-01 0.000000e+00 0.000000e+00
4.565217e-01 0.000000e+00 0.000000e+00
5.072464e-01 0.000000e+00 0.000000e+00
5.579710e-01 0.000000e+00 0.000000e+00
6.086957e-01 0.000000e+00 0.000000e+00
6.594203e-01 0.000000e+00 0.000000e+00
7.101449e-01 0.000000e+00 0.000000e+00
7.608696e-01 0.000000e+00 0.000000e+00
8.115942e-01 0.000000e+00 0.000000e+00
8.623188e-01 0.000000e+00 0.000000e+00
9.130435e-01 0.000000e+00 0.000000e+00
9.637681e-01 0.000000e+00 0.000000e+00
1.014493e+00 0.000000e+00 0.000000e+00
1.065217e+00 0.000000e+00 0.000000e+00
1.115942e+00 0.000000e+00 0.000000e+00
1.166667e+00 0.000000e+00 0.000000e+00
1.217391e+00 0.000000e+00 0.000000e+00
1.268116e+00 0.000000e+00 0.000000e+00
1.318841e+00 0.000000e+00 0.000000e+00
1.369565e+00 0.000000e+00 0.000000e+00
1.420290e+00 0.000000e+00 0.000000e+00
1.471014e+00 0.000000e+00 0.000000e+00
1.521739e+00 0.000000e+00 0.000000e+00
1.572464e+00 0.000000e+00 0.000000e+00
1.623188e+00 0.000000e+00 0.000000e+00
1.673913e+00 0.000000e+00 0.000000e+00
1.724638e+00 0.000000e+00 0.000000e+00
1.775362e+00 0.000000e+00 0.000000e+00
1.826087e+00 0.000000e+00 0.000000e+00
1.876812e+00 0.000000e+00 0.000000e+00
1.927536e+00 0.000000e+00 0.000000e+00
1.978261e+00 0.000000e+00 0.000000e+00
2.028986e+00 0.000000e+00 0.000000e+00
2.079710e+00 0.000000e+00 0.000000e+00
2.130435e+00 0.000000e+00 0.000000e+00
2.181159e+00 0.000000e+00 0.000000e+00
2.231884e+00 0.000000e+00 0.000000e+00
2.282609e+00 0.000000e+00 0.000000e+00
2.333333e+00 0.000000e+00 0.000000e+00
2.384058e+00 0.000000e+00 0.000000e+00
2.434783e+00 0.000000e+00 0.000000e+00
2.485507e+00 0.000000e+00 0.000000e+00
2.536232e+00 0.000000e+00 0.000000e+00
2.586957e+00 0.000000e+00 0.000000e+00
2.637681e+00 0.000000e+00 0.000000e+00
2.688406e+00 0.000000e+00 0.000000e+00
2.739130e+00 0.000000e+00 0.000000e+00
2.789855e+00 0.000000e+00 0.000000e+00
2.840580e+00 0.000000e+00 0.000000e+00
2.891304e+00 0.000000e+00 0.000000e+00
2.942029e+00 0.000000e+00 0.000000e+00
2.992754e+00 0.000000e+00 0.000000e+00
3.043478e+00 0.000000e+00 0.000000e+00
3.094203e+00 0.000000e+00 0.000000e+00
3.144928e+00 0.000000e+00 0.000000e+00
3.195652e+00 0.000000e+00 0.000000e+00
3.246377e+00 0.000000e+00 0.000000e+00
3.297101e+00 0.000000e+00 0.000000e+00
3.347826e+00 0.000000e+00 0.000000e+00
3.398551e+00 0.000000e+00 0.000000e+00
3.449275e+00 0.000000e+00 0.000000e+00
3.500000e+00 0.000000e+00 0.000000e+00
0.000000e+00 3.448276e-02 0.000000e+00
5.072464e-02 3.448276e-02 0.000000e+00
1.014493e-01 3.448276e-02 0.000000e+00
1.521739e-01 3.448276e-02 0.000000e+00
2.028986e-01 3.448276e-02 0.000000e+00
2.536232e-01 3.448276e-02 0.000000e+00
3.043478e-01 3.448276e-02 0.000000e+00
3.550725e-01 3.448276e-02 0.000000e+00
4.057971e-01 3.448276e-02 0.000000e+00
4.565217e-01 3.448276e-02 0.000000e+00
5.072464e-01 3.448276e-02 0.000000e+00
5.579710e-01 3.448276e-02 0.000000e+00
6.086957e-01 3.448276e-02 0.000000e+00
6.594203e-01 3.448276e-02 0.000000e+00
7.101449e-01 3.448276e-02 0.000000e+00
7.608696e-01 3.448276e-02 0.000000e+00
8.115942e-01 3.448276e-02 0.000000e+00
8.623188e-01 3.448276e-02 0.000000e+00
9.130435e-01 3.448276e-02 0.000000e+00
9.637681e-01 3.448276e-02 0.000000e+00
1.014493e+00 3.448276e-02 0.000000e+00
1.065217e+00 3.448276e-02 0.000000e+00
1.115942e+00 3.448276e-02 0.000000e+00
1.166667e+00 3.448276e-02 0.000000e+00
1.217391e+00 3.448276e-02 0.000000e+00
1.268116e+00 3.448276e-02 0.000000e+00
1.318841e+00 3.448276e-02 0.000000e+00
1.369565e+00 3.448276e-02 0.000000e+00
1.420290e+00 3.448276e-02 0.000000e+00
1.471014e+00 3.448276e-02 0.000000e+00
1.521739e+00 3.448276e-02 0.000000e+00
1.572464e+00 3.448276e-02 0.000000e+00
1.623188e+00 3.448276e-02 0.000000e+00
1.673913e+00 3.448276e-02 0.000000e+00
1.724638e+00 3.448276e-02 0.000000e+00
1.775362e+00 3.448276e-02 0.000000e+00
1.826087e+00 3.448276e-02 0.000000e+00
1.876812e+00 3.448276e-02 0.000000e+00
1.927536e+00 3.448276e-02 0.000000e+00
1.978261e+00 3.448276e-02 0.000000e+00
2.028986e+00 3.448276e-02 0.000000e+00
2.079710e+00 3.448276e-02 0.000000e+00
2.130435e+00 3.448276e-02 0.000000e+00
2.181159e+00 3.448276e-02 0.000000e+00
2.231884e+00 3.448276e-02 0.000000e+00
2.282609e+00 3.448276e-02 0.000000e+00
2.333333e+00 3.448276e-02 0.000000e+00
2.384058e+00 3.448276e-02 0.000000e+00
2.434783e+00 3.448276e-02 0.000000e+00
2.485507e+00 3.448276e-02 0.000000e+00
2.536232e+00 3.448276e-02 0.000000e+00
2.586957e+00 3.448276e-02 0.000000e+00
2.637681e+00 3.448276e-02 0.000000e+00
2.688406e+00 3.448276e-02 0.000000e+00
2.739130e+00 3.448276e-02 0.000000e+00
2.789855e+00 3.448276e-02 0.000000e+00
2.840580e+00 3.448276e-02 0.000000e+00
2.891304e+00 3.448276e-02 0.000000e+00
2.942029e+00 3.448276e-02 0.000000e+00
2.992754e+00 3.448276e-02 0.000000e+00
3.043478e+00 3.448276e-02 0.000000e+00
3.094203e+00 3.448276e-02 0.000000e+00
3.144928e+00 3.448276e-02 0.000000e+00
3.195652e+00 3.448276e-02 0.000000e+00
3.246377e+00 3.448276e-02 0.000000e+00
3.297101e+00 3.448276e-02 0.000000e+00
3.347826e+00 3.448276e-02 0.000000e+00
3.398551e+00 3.448276e-02 0.000000e+00
3.449275e+00 3.448276e-02 0.000000e+00
3.500000e+00 3.448276e-02 0.000000e+00
0.000000e+00 6.896552e-02 0.000000e+00
5.072464e-02 6.896552e-02 0.000000e+00
1.014493e-01 6.896552e-02 0.000000e+00
1.521739e-01 6.896552e-02 0.000000e+00
2.028986e-01 6.896552e-02 0.000000e+00
2.536232e-01 6.896552e-02 0.000000e+00
3.043478e-01 6.896552e-02 0.000000e+00
3.550725e-01 6.896552e-02 0.000000e+00
4.057971e-01 6.896552e-02 0.000000e+00
4.565217e-01 6.896552e-02 0.000000e+00
5.072464e-01 6.896552e-02 0.000000e+00
5.579710e-01 6.896552e-02 0.000000e+00
6.086957e-01 6.896552e-02 0.000000e+00
6.594203e-01 6.896552e-02 0.000000e+00
7.101449e-01 6.896552e-02 0.000000e+00
7.608696e-01 6.896552e-02 0.000000e+00
8.115942e-01 6.896552e-02 0.000000e+00
8.623188e-01 6.896552e-02 0.000000e+00
9.130435e-01 6.896552e-02 0.000000e+00
9.637681e-01 6.896552e-02 0.000000e+00
1.014493e+00 6.896552e-02 0.000000e+00
1.065217e+00 6.896552e-02 0.000000e+00
1.115942e+00 6.896552e-02 0.000000e+00
1.166667e+00 6.896552e-02 0.000000e+00
1.217391e+00 6.896552e-02 0.000000e+00
1.268116e+00 6.896552e-02 0.000000e+00
1.318841e+00 6.896552e-02 0.000000e+00
1.369565e+00 6.896552e-02 0.000000e+00
1.420290e+00 6.896552e-02 0.000000e+00
1.471014e+00 6.896552e-02 0.000000e+00
1.521739e+00 6.896552e-02 0.000000e+00
1.572464e+00 6.896552e-02 0.000000e+00
1.623188e+00 6.896552e-02 0.000000e+00
1.673913e+00 6.896552e-02 0.000000e+00
1.724638e+00 6.896552e-02 0.000000e+00
1.775362e+00 6.896552e-02 0.000000e+00
1.826087e+00 6.896552e-02 0.000000e+00
1.876812e+00 6.896552e-02 0.000000e+00
1.927536e+00 6.896552e-02 0.000000e+00
1.978261e+00 6.896552e-02 0.000000e+00
2.028986e+00 6.896552e-02 0.000000e+00
2.079710e+00 6.896552e-02 0.000000e+00
2.130435e+00 6.896552e-02 0.000000e+00
2.181159e+00 6.896552e-02 0.000000e+00
2.231884e+00 6.896552e-02 0.000000e+00
2.282609e+00 6.896552e-02 0.000000e+00
2.333333e+00 6.896552e-02 0.000000e+00
2.384058e+00 6.896552e-02 0.000000e+00
2.434783e+00 6.896552e-02 0.000000e+00
2.485507e+00 6.896552e-02 0.000000e+00
2.536232e+00 6.896552e-02 0.000000e+00
2.586957e+00 6.896552e-02 0.000000e+00
2.637681e+00 6.896552e-02 0.000000e+00
2.688406e+00 6.896552e-02 0.000000e+00
2.739130e+00 6.896552e-02 0.000000e+00
2.789855e+00 6.896552e-02 0.000000e+00
2.840580e+00 6.896552e-02 0.000000e+00
2.891304e+00 6.896552e-02 0.000000e+00
2.942029e+00 6.896552e-02 0.000000e+00
2.992754e+00 6.896552e-02 0.000000e+00
3.043478e+00 6.896552e-02 0.000000e+00
3.094203e+00 6.896552e-02 0.000000e+00
3.144928e+00 6.896552e-02 0.000000e+00
3.195652e+00 6.896552e-02 0.000000e+00
3.246377e+00 6.896552e-02 0.000000e+00
3.297101e+00 6.896552e-02 0.000000e+00
3.347826e+00 6.896552e-02 0.000000e+00
3.398551e+00 6.896552e-02 0.000000e+00
3.449275e+00 6.896552e-02 0.000000e+00
3.500000e+00 6.896552e-02 0.000000e+00
0.000000e+00 1.034483e-01 0.000000e+00
5.072464e-02 1.034483e-01 0.000000e+00
1.014493e-01 1.034483e-01 0.000000e+00
1.521739e-01 1.034483e-01 0.000000e+00
2.028986e-01 1.034483e-01 0.000000e+00
2.536232e-01 1.034483e-01 0.000000e+00
3.043478e-01 1.034483e-01 0.000000e+00
3.550725e-01 1.034483e-01 0.000000e+00
4.057971e-01 1.034483e-01 0.000000e+00
4.565217e-01 1.034483e-01 0.000000e+00
5.072464e-01 1.034483e-01 0.000000e+00
5.579710e-01 1.034483e-01 0.000000e+00
6.086957e-01 1.034483e-01 0.000000e+00
6.594203e-01 1.034483e-01 0.000000e+00
7.101449e-01 1.034483e-01 0.000000e+00
7.608696e-01 1.034483e-01 0.000000e+00
8.115942e-01 1.034483e-01 0.000000e+00
8.623188e-01 1.034483e-01 0.000000e+00
9.130435e-01 1.034483e-01 0.000000e+00
9.637681e-01 1.034483e-01 0.000000e+00
1.014493e+00 1.034483e-01 0.000000e+00
1.065217e+00 1.034483e-01 0.000000e+00
1.115942e+00 1.034483e-01 0.000000e+00
1.166667e+00 1.034483e-01 0.000000e+00
1.217391e+00 1.034483e-01 0.000000e+00
1.268116e+00 1.034483e-01 0.000000e+00
1.318841e+00 1.034483e-01 0.000000e+00
1.369565e+00 1.034483e-01 0.000000e+00
1.420290e+00 1.034483e-01 0.000000e+00
1.471014e+00 1.034483e-01 0.000000e+00
1.521739e+00 1.034483e-01 0.000000e+00
1.572464e+00 1.034483e-01 0.000000e+00
1.623188e+00 1.034483e-01 0.000000e+00
1.673913e+00 1.034483e-01 0.000000e+00
1.724638e+00 1.034483e-01 0.000000e+00
1.775362e+00 1.034483e-01 0.000000e+00
1.826087e+00 1.034483e-01 0.000000e+00
1.876812e+00 1.034483e-01 0.000000e+00
1.927536e+00 1.034483e-01 0.000000e+00
1.978261e+00 1.034483e-01 0.000000e+00
2.028986e+00 1.034483e-01 0.000000e+00
2.079710e+00 1.034483e-01 0.000000e+00
2.130435e+00 1.034483e-01 0.000000e+00
[...]
POINT_DATA 2100
SCALARS RES_Cont double
LOOKUP_TABLE default
0.000000e+00
0.000000e+00
0.000000e+00
0.000000e+00
0.000000e+00
0.000000e+00
0.000000e+00
0.000000e+00
0.000000e+00
0.000000e+00
0.000000e+00
0.000000e+00
0.000000e+00
0.000000e+00
0.000000e+00
0.000000e+00
0.000000e+00
0.000000e+00
0.000000e+00
0.000000e+00
0.000000e+00
0.000000e+00
0.000000e+00
0.000000e+00
0.000000e+00
0.000000e+00
0.000000e+00
0.000000e+00
0.000000e+00
0.000000e+00
0.000000e+00
0.000000e+00
0.000000e+00
0.000000e+00
0.000000e+00
0.000000e+00
0.000000e+00
0.000000e+00
0.000000e+00
0.000000e+00
0.000000e+00
0.000000e+00
0.000000e+00
0.000000e+00
0.000000e+00
0.000000e+00
0.000000e+00
0.000000e+00
0.000000e+00
0.000000e+00
0.000000e+00
0.000000e+00
0.000000e+00
0.000000e+00
0.000000e+00
0.000000e+00
0.000000e+00
0.000000e+00
0.000000e+00
0.000000e+00
0.000000e+00
0.000000e+00
0.000000e+00
0.000000e+00
0.000000e+00
0.000000e+00
0.000000e+00
0.000000e+00
0.000000e+00
0.000000e+00
0.000000e+00
4.698404e-18
6.786609e-18
5.173018e-18
2.851350e-18
5.869046e-18
1.498559e-18
2.503267e-18
5.831173e-18
4.553933e-18
1.510898e-18
2.630174e-18
6.312472e-18
-1.786355e-18
2.765099e-17
1.899118e-16
1.096066e-15
5.838737e-15
2.900803e-14
1.352172e-13
5.934190e-13
2.456412e-12
9.599038e-12
3.542189e-11
1.233828e-10
4.052756e-10
1.253692e-09
3.647766e-09
9.974804e-09
2.563269e-08
6.194888e-08
1.410172e-07
3.029429e-07
6.155009e-07
1.185178e-06
2.166996e-06
3.768750e-06
6.244281e-06
9.871241e-06
1.491235e-05
2.156493e-05
2.990926e-05
3.986977e-05
5.120076e-05
6.350231e-05
7.626308e-05
8.891949e-05
1.009179e-04
1.117679e-04
1.210794e-04
1.285806e-04
1.341208e-04
1.376595e-04
1.392495e-04
1.390159e-04
1.371354e-04
1.338175e-04
1.292884e-04
1.237774e-04
1.175073e-04
1.106866e-04
1.035040e-04
9.612595e-05
8.869409e-05
8.132539e-05
7.411264e-05
6.712587e-05
6.041435e-05
5.400898e-05
0.000000e+00
0.000000e+00
2.096617e-18
2.081499e-18
2.893700e-18
4.780355e-18
3.935137e-18
6.168566e-18
5.938675e-18
5.279595e-18
4.511740e-18
4.433461e-18
3.768998e-18
3.866400e-18
1.208694e-17
3.027341e-17
2.252609e-16
1.284640e-15
6.857983e-15
3.418382e-14
1.596622e-13
7.011409e-13
2.897072e-12
1.126725e-11
4.122995e-11
1.418206e-10
4.580334e-10
1.387683e-09
3.942992e-09
1.051581e-08
2.637048e-08
6.233874e-08
1.393211e-07
2.951950e-07
5.943811e-07
1.139365e-06
2.081788e-06
3.628618e-06
6.037398e-06
9.595075e-06
1.457855e-05
2.120151e-05
2.955892e-05
3.958427e-05
5.103309e-05
6.349864e-05
7.645657e-05
8.932721e-05
1.015409e-04
1.125939e-04
1.220863e-04
1.297414e-04
1.354066e-04
1.390430e-04
1.407062e-04
1.405253e-04
1.386810e-04
1.353866e-04
1.308712e-04
1.253667e-04
1.190976e-04
1.122736e-04
1.050845e-04
9.769689e-05
9.025308e-05
8.287030e-05
7.564154e-05
6.863697e-05
6.190592e-05
5.547919e-05
0.000000e+00
0.000000e+00
5.352912e-18
1.331129e-18
5.073073e-18
6.588508e-18
4.948418e-18
1.821834e-18
5.926048e-18
1.201429e-18
6.133490e-18
-2.962072e-18
5.636150e-18
6.382536e-18
8.579242e-19
5.023952e-17
2.765057e-16
1.648492e-15
8.831603e-15
4.419478e-14
2.068167e-13
9.069523e-13
3.728247e-12
1.435813e-11
5.174715e-11
1.743047e-10
5.482372e-10
1.610163e-09
4.421617e-09
1.138304e-08
2.757657e-08
6.314617e-08
1.372859e-07
2.845145e-07
5.637674e-07
1.070112e-06
1.947307e-06
3.397025e-06
5.678276e-06
9.089972e-06
1.393263e-05
2.045212e-05
2.877702e-05
3.886697e-05
5.048890e-05
6.322985e-05
7.654379e-05
8.981975e-05
1.024543e-04
1.139134e-04
1.237748e-04
1.317477e-04
1.376742e-04
1.415159e-04
1.433339e-04
1.432643e-04
1.414960e-04
1.382497e-04
1.337611e-04
1.282674e-04
1.219970e-04
1.151625e-04
1.079558e-04
1.005451e-04
9.307366e-05
8.565972e-05
7.839695e-05
7.135609e-05
6.458688e-05
5.812028e-05
0.000000e+00
0.000000e+00
1.538739e-18
-1.590033e-19
-1.431363e-18
3.662899e-19
-1.092761e-18
5.011776e-18
4.998744e-18
4.153177e-18
-7.925367e-21
4.193532e-18
5.498999e-18
4.575802e-19
8.723520e-18
6.317759e-17
3.799333e-16
2.228412e-15
1.201279e-14
6.019409e-14
2.814181e-13
1.227905e-12
4.997284e-12
1.894684e-11
6.682812e-11
2.190627e-10
6.673672e-10
1.892108e-09
5.006665e-09
1.241592e-08
2.900445e-08
6.418813e-08
1.353275e-07
2.731744e-07
5.300604e-07
9.911390e-07
1.787761e-06
3.109755e-06
5.210454e-06
8.396231e-06
1.299356e-05
1.929280e-05
2.747796e-05
3.756148e-05
4.934548e-05
6.242452e-05
7.623089e-05
9.010951e-05
1.034020e-04
1.155205e-04
1.259984e-04
1.345149e-04
1.408964e-04
1.451011e-04
1.471952e-04
1.473252e-04
1.456925e-04
1.425304e-04
1.380858e-04
1.326054e-04
1.263251e-04
1.194633e-04
1.122162e-04
1.047553e-04
9.722632e-05
8.974942e-05
8.241996e-05
7.531011e-05
6.847073e-05
6.193366e-05
0.000000e+00
0.000000e+00
6.838393e-18
3.379312e-18
5.482635e-18
-1.597105e-19
2.551800e-18
3.601318e-18
4.091750e-18
5.828741e-18
-5.531555e-19
4.279948e-18
1.467607e-18
3.593000e-18
6.978681e-18
8.061991e-17
5.319412e-16
3.105161e-15
1.676268e-14
8.392785e-14
3.903460e-13
1.685909e-12
6.753342e-12
2.505621e-11
8.602378e-11
2.733143e-10
8.047599e-10
2.202213e-09
5.623594e-09
1.346888e-08
3.043015e-08
6.524752e-08
1.335731e-07
2.625280e-07
4.976903e-07
9.131569e-07
1.624604e-06
2.803462e-06
4.687342e-06
7.578602e-06
1.182168e-05
1.775342e-05
2.563026e-05
3.554871e-05
4.738452e-05
6.077385e-05
7.514645e-05
8.980239e-05
1.040096e-04
1.170961e-04
1.285182e-04
1.378960e-04
1.450188e-04
1.498286e-04
1.523915e-04
1.528652e-04
1.514679e-04
1.484516e-04
1.440814e-04
1.386197e-04
1.323158e-04
1.253987e-04
1.180726e-04
1.105154e-04
1.028777e-04
9.528362e-05
8.783179e-05
8.059718e-05
7.363304e-05
6.697324e-05
0.000000e+00
0.000000e+00
4.717546e-18
4.054397e-18
6.681851e-20
-4.064253e-18
2.886442e-18
6.275167e-19
3.287781e-18
4.265826e-18
8.740456e-19
3.077198e-18
4.248222e-18
-8.626883e-19
6.519710e-18
1.254985e-16
7.427993e-16
4.380436e-15
2.359707e-14
1.175245e-13
5.408937e-13
2.298584e-12
9.008126e-12
3.253364e-11
1.083175e-10
3.329978e-10
9.480508e-10
2.509700e-09
6.207727e-09
1.442564e-08
3.167687e-08
6.611652e-08
1.319318e-07
2.530687e-07
4.689366e-07
8.428389e-07
1.473620e-06
2.509933e-06
4.164169e-06
6.719545e-06
1.052061e-05
1.593741e-05
2.329984e-05
3.281128e-05
4.446506e-05
5.799348e-05
7.287232e-05
8.838429e-05
1.037229e-04
1.181067e-04
1.308734e-04
1.415391e-04
1.498163e-04
1.556018e-04
1.589448e-04
1.600072e-04
1.590248e-04
1.562744e-04
1.520475e-04
1.466314e-04
1.402974e-04
1.332925e-04
1.258359e-04
1.181169e-04
1.102953e-04
1.025025e-04
9.484321e-05
8.739746e-05
8.022290e-05
7.335718e-05
0.000000e+00
0.000000e+00
2.469825e-18
2.102247e-18
2.973934e-18
3.867695e-18
2.817881e-18
2.356244e-18
1.402770e-18
4.335994e-18
2.189548e-18
3.818777e-18
4.285603e-18
3.020766e-18
2.061529e-17
1.615538e-16
1.062929e-15
6.178893e-15
3.310656e-14
1.630936e-13
7.382883e-13
3.068184e-12
1.170242e-11
4.099328e-11
1.321467e-10
3.932667e-10
1.084948e-09
2.788220e-09
6.710162e-09
1.520556e-08
3.262249e-08
6.662161e-08
1.301857e-07
2.446450e-07
4.442066e-07
7.826531e-07
1.342923e-06
2.249846e-06
3.684856e-06
5.898673e-06
9.214020e-06
1.400756e-05
2.066159e-05
2.948495e-05
4.061737e-05
5.394618e-05
6.906806e-05
8.531639e-05
1.018507e-04
1.177823e-04
1.322989e-04
1.447587e-04
1.547380e-04
1.620352e-04
1.666430e-04
1.687033e-04
1.684596e-04
1.662133e-04
1.622891e-04
1.570098e-04
1.506802e-04
1.435768e-04
1.359436e-04
1.279903e-04
1.198930e-04
1.117964e-04
1.038157e-04
9.603986e-05
8.853409e-05
8.134256e-05
0.000000e+00
0.000000e+00
-1.416097e-18
4.490677e-18
6.805284e-18
5.717721e-18
2.410713e-19
3.471587e-18
5.617729e-19
4.865447e-18
4.060368e-18
9.044268e-19
4.713289e-18
6.917282e-18
2.835018e-17
2.412982e-16
1.485863e-15
8.656921e-15
4.583421e-14
2.219726e-13
9.822020e-13
3.971432e-12
1.469115e-11
4.984203e-11
1.556353e-10
4.492704e-10
1.204918e-09
3.018208e-09
7.099049e-09
1.576079e-08
3.319380e-08
6.663563e-08
1.280863e-07
2.367819e-07
4.227539e-07
7.319716e-07
1.233735e-06
2.030963e-06
3.273403e-06
5.172048e-06
8.009826e-06
1.213965e-05
1.795851e-05
2.584907e-05
3.609091e-05
4.875998e-05
6.364840e-05
8.023852e-05
9.774869e-05
1.152423e-04
1.317681e-04
1.464922e-04
1.587896e-04
1.682850e-04
1.748444e-04
1.785361e-04
1.795765e-04
1.782748e-04
1.749860e-04
1.700748e-04
1.638911e-04
1.567553e-04
1.489501e-04
1.407187e-04
1.322648e-04
1.237558e-04
1.153254e-04
1.070779e-04
9.909106e-05
9.141990e-05
0.000000e+00
0.000000e+00
3.921465e-18
5.301855e-18
2.370275e-18
4.753933e-18
2.858922e-18
5.296600e-18
2.555416e-18
2.943445e-18
5.500543e-18
-2.782929e-18
1.558532e-18
1.174084e-18
4.191037e-17
3.289045e-16
2.086277e-15
1.192736e-14
6.208461e-14
2.937179e-13
1.264017e-12
4.956017e-12
1.775747e-11
5.837610e-11
1.769149e-10
4.968697e-10
1.300246e-09
3.187481e-09
7.357731e-09
1.606972e-08
3.335669e-08
6.608048e-08
1.254236e-07
2.289461e-07
4.034000e-07
6.886152e-07
1.142958e-06
1.851019e-06
2.934104e-06
4.563328e-06
6.973136e-06
1.046972e-05
1.542489e-05
2.224423e-05
3.130206e-05
4.284766e-05
5.690348e-05
7.318925e-05
9.110492e-05
1.097881e-04
1.282341e-04
1.454448e-04
1.605643e-04
1.729709e-04
1.823135e-04
1.884981e-04
1.916417e-04
1.920117e-04
1.899655e-04
1.859000e-04
1.802140e-04
1.732826e-04
1.654431e-04
1.569885e-04
1.481663e-04
1.391806e-04
1.301963e-04
1.213429e-04
1.127194e-04
1.043985e-04
0.000000e+00
0.000000e+00
-7.838754e-19
4.351958e-18
-1.912233e-18
1.284927e-18
8.661777e-19
-1.977987e-19
-1.189645e-18
1.775322e-18
4.510852e-18
4.799540e-18
-2.813737e-18
9.556358e-18
5.826768e-17
4.628531e-16
2.843622e-15
1.605478e-14
8.160007e-14
3.753246e-13
1.565937e-12
5.946726e-12
2.064926e-11
6.590419e-11
1.944134e-10
5.331023e-10
1.366376e-09
3.290559e-09
7.481583e-09
1.613005e-08
3.310659e-08
6.492354e-08
1.220571e-07
2.206962e-07
3.850075e-07
6.500788e-07
1.065847e-06
1.702517e-06
2.658132e-06
4.068806e-06
6.121234e-06
9.065011e-06
1.321895e-05
1.896198e-05
2.669800e-05
3.678833e-05
4.945742e-05
6.469299e-05
8.217379e-05
1.012567e-04
1.210374e-04
1.404726e-04
1.585304e-04
1.743279e-04
1.872258e-04
1.968661e-04
2.031593e-04
2.062372e-04
2.063900e-04
2.040026e-04
1.995008e-04
1.933108e-04
1.858321e-04
1.774224e-04
1.683905e-04
1.589960e-04
1.494516e-04
1.399274e-04
1.305568e-04
1.214409e-04
0.000000e+00
0.000000e+00
-1.891593e-18
1.750176e-19
2.619915e-19
3.805045e-18
1.474318e-18
-2.333749e-19
3.644867e-18
6.916770e-18
1.927897e-18
3.036381e-18
3.036962e-18
1.539230e-17
7.955572e-17
6.194494e-16
3.800755e-15
2.093926e-14
1.034406e-13
4.612088e-13
1.863453e-12
6.858267e-12
2.312408e-11
7.185848e-11
2.070467e-10
5.563478e-10
1.401680e-09
3.327348e-09
7.474761e-09
1.595303e-08
3.246058e-08
6.317052e-08
1.179210e-07
2.117360e-07
3.666947e-07
6.141989e-07
9.977770e-07
1.576742e-06
2.431235e-06
3.669340e-06
5.436724e-06
7.928316e-06
1.139941e-05
1.617044e-05
2.261652e-05
3.113188e-05
4.206389e-05
5.562231e-05
7.178366e-05
9.022161e-05
1.102929e-04
1.310929e-04
1.515714e-04
1.706773e-04
1.874966e-04
2.013500e-04
2.118386e-04
2.188375e-04
2.224544e-04
2.229682e-04
2.207652e-04
2.162825e-04
2.099646e-04
2.022329e-04
1.934679e-04
1.840004e-04
1.741101e-04
1.640270e-04
1.539363e-04
1.439836e-04
0.000000e+00
0.000000e+00
5.989811e-18
2.190735e-18
2.139769e-18
4.403424e-18
2.894254e-18
1.099211e-18
5.592327e-18
4.559105e-18
-1.027297e-18
3.279887e-18
1.168599e-17
1.094270e-17
1.286683e-16
8.190670e-16
4.930663e-15
2.630778e-14
1.259873e-13
5.438864e-13
2.129557e-12
7.610797e-12
2.498938e-11
7.586828e-11
2.142863e-10
5.662344e-10
1.406889e-09
3.301661e-09
7.347402e-09
1.555905e-08
3.145097e-08
6.085669e-08
1.130136e-07
2.019118e-07
3.478811e-07
5.793849e-07
9.350417e-07
1.466016e-06
2.239135e-06
3.341321e-06
4.886042e-06
7.022224e-06
9.945053e-06
1.390610e-05
1.921732e-05
2.624083e-05
3.535567e-05
4.689683e-05
6.107133e-05
7.786873e-05
9.699318e-05
1.178439e-04
1.395586e-04
1.611148e-04
1.814629e-04
1.996593e-04
2.149690e-04
2.269210e-04
2.353159e-04
2.401945e-04
2.417855e-04
2.404435e-04
2.365928e-04
2.306802e-04
2.231414e-04
2.143780e-04
2.047465e-04
1.945528e-04
1.840527e-04
1.734553e-04
0.000000e+00
0.000000e+00
6.840553e-18
4.061175e-18
1.539933e-18
7.094508e-19
2.459618e-18
1.084051e-18
-1.178979e-18
4.301429e-18
5.091847e-18
-0.000000e+00
6.444126e-18
1.809250e-17
1.642740e-16
1.071793e-15
6.126740e-15
3.175246e-14
1.471200e-13
6.154176e-13
2.339749e-12
8.143674e-12
2.612883e-11
7.778312e-11
2.161144e-10
5.633845e-10
1.384418e-09
3.219886e-09
7.113373e-09
1.497410e-08
3.011994e-08
5.803835e-08
1.073826e-07
1.911879e-07
3.282534e-07
5.446117e-07
8.750221e-07
1.364504e-06
2.070096e-06
3.063267e-06
4.433635e-06
6.294729e-06
8.792198e-06
1.211387e-05
1.649926e-05
2.224353e-05
2.968889e-05
3.919569e-05
5.108898e-05
6.558389e-05
8.270389e-05
1.022143e-04
1.235949e-04
1.460671e-04
1.686738e-04
1.903950e-04
2.102713e-04
2.275080e-04
2.415424e-04
2.520673e-04
2.590170e-04
2.625272e-04
2.628818e-04
2.604591e-04
2.556834e-04
2.489874e-04
2.407852e-04
2.314553e-04
2.213318e-04
2.107013e-04
0.000000e+00
0.000000e+00
1.869602e-18
3.486804e-18
4.564227e-18
3.253970e-18
5.055917e-18
2.327569e-18
3.233605e-18
2.834370e-19
4.698591e-18
2.553344e-18
4.868180e-19
2.543244e-17
2.025729e-16
1.299373e-15
7.329868e-15
3.667846e-14
1.646797e-13
6.688095e-13
2.476482e-12
8.424146e-12
2.650859e-11
7.764956e-11
2.129083e-10
5.491065e-10
1.337738e-09
3.089883e-09
6.788549e-09
1.422721e-08
2.851549e-08
5.478552e-08
1.011111e-07
1.796165e-07
3.077077e-07
5.093194e-07
8.160631e-07
1.268205e-06
1.915534e-06
2.818374e-06
4.049263e-06
5.696019e-06
7.866921e-06
1.069838e-05
1.436447e-05
1.908613e-05
2.513571e-05
3.283082e-05
4.251097e-05
5.449307e-05
6.900767e-05
8.612627e-05
1.056973e-04
1.273110e-04
1.503081e-04
1.738355e-04
1.969385e-04
2.186691e-04
2.381873e-04
2.548361e-04
2.681829e-04
2.780241e-04
2.843637e-04
2.873728e-04
2.873435e-04
2.846422e-04
2.796707e-04
2.728346e-04
2.645216e-04
2.550871e-04
0.000000e+00
0.000000e+00
1.904859e-18
1.675988e-19
-4.137810e-19
5.319616e-18
6.646131e-18
3.334743e-18
4.423521e-18
6.784430e-18
1.540100e-18
1.014242e-18
7.313725e-19
3.453060e-17
2.585760e-16
1.535542e-15
8.376528e-15
4.058610e-14
1.768668e-13
6.995118e-13
2.531777e-12
8.448325e-12
2.616591e-11
7.566103e-11
2.053055e-10
5.251090e-10
1.270857e-09
2.920165e-09
6.389567e-09
1.334853e-08
2.668832e-08
5.117622e-08
9.430492e-08
1.673114e-07
2.862922e-07
4.732976e-07
7.572601e-07
1.174633e-06
1.769703e-06
2.594714e-06
3.710155e-06
5.185819e-06
7.103394e-06
9.561283e-06
1.268193e-05
1.662101e-05
2.157661e-05
2.779455e-05
3.556505e-05
4.520525e-05
5.702397e-05
7.126943e-05
8.806667e-05
1.073578e-04
1.288611e-04
1.520629e-04
1.762486e-04
2.005683e-04
2.241250e-04
2.460657e-04
2.656598e-04
2.823532e-04
2.957922e-04
3.058224e-04
3.124657e-04
3.158860e-04
3.163503e-04
3.141909e-04
3.097724e-04
3.034654e-04
0.000000e+00
0.000000e+00
5.664342e-18
6.091593e-18
5.847047e-18
-1.468604e-18
8.602312e-20
2.803829e-18
-2.268142e-18
-8.105601e-20
-4.057054e-18
6.257981e-18
6.353888e-18
3.872922e-17
2.927645e-16
1.739227e-15
9.148220e-15
4.302078e-14
1.825882e-13
7.059533e-13
2.506979e-12
8.236084e-12
2.518836e-11
7.210109e-11
1.940808e-10
4.932738e-10
1.187947e-09
2.719320e-09
5.932984e-09
1.236813e-08
2.468974e-08
4.729234e-08
8.708425e-08
1.544272e-07
2.641597e-07
4.365830e-07
6.982542e-07
1.082431e-06
1.629074e-06
2.384441e-06
3.400507e-06
4.734675e-06
6.450438e-06
8.619748e-06
1.132768e-05
1.467962e-05
1.881023e-05
2.389258e-05
3.014431e-05
3.782692e-05
4.723366e-05
5.866315e-05
7.237816e-05
8.855383e-05
1.072242e-04
1.282388e-04
1.512421e-04
1.756823e-04
2.008510e-04
2.259470e-04
2.501520e-04
2.727040e-04
2.929574e-04
3.104227e-04
3.247830e-04
3.358912e-04
3.437512e-04
3.484910e-04
3.503309e-04
3.495532e-04
0.000000e+00
0.000000e+00
5.957899e-18
-2.561428e-18
1.267460e-18
4.776683e-18
1.639715e-18
-2.106024e-18
-4.052626e-20
4.949604e-18
1.788159e-18
5.214704e-18
4.577593e-18
4.611746e-17
3.171127e-16
1.873355e-15
9.561859e-15
4.378025e-14
1.816536e-13
6.893262e-13
2.410776e-12
7.823074e-12
2.369176e-11
6.729475e-11
1.800533e-10
4.554966e-10
1.093098e-09
2.495647e-09
5.434751e-09
1.131510e-08
2.257022e-08
4.321671e-08
7.957637e-08
1.411437e-07
2.415316e-07
3.993792e-07
6.390638e-07
9.910487e-07
1.491735e-06
2.182788e-06
3.110067e-06
4.322506e-06
5.871480e-06
7.811336e-06
1.020179e-05
1.311263e-05
1.663080e-05
2.086919e-05
2.597558e-05
3.213938e-05
3.959287e-05
4.860379e-05
5.945639e-05
7.242042e-05
8.770995e-05
1.054379e-04
1.255741e-04
1.479174e-04
1.720877e-04
1.975432e-04
2.236196e-04
2.495858e-04
2.747056e-04
2.982958e-04
3.197729e-04
3.386840e-04
3.547206e-04
3.677173e-04
3.776390e-04
3.845602e-04
0.000000e+00
0.000000e+00
2.565292e-18
2.458360e-18
6.291988e-18
6.113205e-18
2.794342e-18
2.350364e-18
4.787182e-18
5.120986e-18
2.444959e-18
4.252524e-18
2.791913e-18
5.509776e-17
3.449875e-16
1.934103e-15
9.578321e-15
4.288782e-14
1.746779e-13
6.529329e-13
2.256329e-12
7.252750e-12
2.180214e-11
6.157290e-11
1.640237e-10
4.135871e-10
9.901679e-10
2.256949e-09
4.909910e-09
1.021715e-08
2.037845e-08
3.903091e-08
7.191082e-08
1.276534e-07
2.186702e-07
3.619964e-07
5.799561e-07
9.004750e-07
1.356889e-06
1.987173e-06
2.832651e-06
3.936419e-06
5.341921e-06
7.092239e-06
9.230757e-06
1.180376e-05
1.486524e-05
1.848393e-05
2.275165e-05
2.779199e-05
3.376703e-05
4.088000e-05
4.937122e-05
5.950521e-05
7.154830e-05
8.573726e-05
1.022426e-04
1.211317e-04
1.423381e-04
1.656448e-04
1.906832e-04
2.169526e-04
2.438543e-04
2.707371e-04
2.969460e-04
3.218681e-04
3.449692e-04
3.658199e-04
3.841078e-04
3.996392e-04
0.000000e+00
0.000000e+00
6.175250e-18
5.594832e-18
-2.332807e-18
4.656840e-19
5.389098e-18
4.949125e-18
-4.064410e-19
1.793356e-18
3.109040e-18
6.080868e-18
8.916305e-18
4.876750e-17
3.436371e-16
1.890037e-15
9.233022e-15
4.051995e-14
1.627035e-13
6.011798e-13
2.058493e-12
6.570207e-12
1.964344e-11
5.524967e-11
1.467370e-10
3.692137e-10
8.827028e-10
2.010421e-09
4.372415e-09
9.100200e-09
1.816061e-08
3.481356e-08
6.421522e-08
1.141527e-07
1.958582e-07
3.248063e-07
5.213531e-07
8.110512e-07
1.224482e-06
1.796503e-06
2.564909e-06
3.568675e-06
4.846096e-06
6.433314e-06
8.363784e-06
1.066925e-05
1.338262e-05
1.654290e-05
2.020191e-05
2.443220e-05
2.933496e-05
3.504646e-05
4.174127e-05
4.963047e-05
5.895328e-05
6.996143e-05
8.289635e-05
9.796109e-05
1.152901e-04
1.349210e-04
1.567738e-04
1.806406e-04
2.061886e-04
2.329776e-04
2.604874e-04
2.881533e-04
3.154040e-04
3.416968e-04
3.665471e-04
3.895493e-04
0.000000e+00
0.000000e+00
5.678821e-18
5.560967e-18
4.848686e-18
2.228272e-18
3.488313e-18
6.096517e-18
-1.630630e-19
-4.911310e-19
8.223650e-19
5.454292e-18
1.311904e-17
4.535998e-17
3.440812e-16
1.782407e-15
8.529523e-15
3.705092e-14
1.470714e-13
5.386972e-13
1.832260e-12
5.818325e-12
1.732989e-11
4.861017e-11
1.288645e-10
3.238764e-10
7.739008e-10
1.762581e-09
3.835010e-09
7.988153e-09
1.595967e-08
3.063878e-08
5.661190e-08
1.008339e-07
1.733821e-07
2.882082e-07
4.637623e-07
7.233316e-07
1.094937e-06
1.610665e-06
2.305407e-06
3.215091e-06
4.374654e-06
5.816141e-06
7.567414e-06
9.651970e-06
1.209030e-05
1.490302e-05
1.811577e-05
2.176553e-05
2.590774e-05
3.062331e-05
3.602434e-05
4.225733e-05
4.950271e-05
5.796959e-05
6.788514e-05
7.947869e-05
9.296132e-05
1.085028e-04
1.262084e-04
1.460989e-04
1.680966e-04
1.920196e-04
2.175863e-04
2.444290e-04
2.721152e-04
3.001739e-04
3.281238e-04
3.554998e-04
0.000000e+00
0.000000e+00
5.960393e-18
5.283329e-18
-2.430404e-19
4.379848e-18
5.120624e-18
6.197288e-18
-2.293030e-18
2.962927e-18
1.025852e-17
9.643424e-18
1.135391e-17
3.568716e-17
3.146528e-16
1.627158e-15
7.645003e-15
3.280858e-14
1.291275e-13
4.700230e-13
1.591168e-12
5.035500e-12
1.496238e-11
4.190456e-11
1.109947e-10
2.788948e-10
6.665883e-10
1.519230e-09
3.309108e-09
6.902569e-09
1.381476e-08
2.657472e-08
4.921473e-08
8.787927e-08
1.515198e-07
2.526039e-07
4.077272e-07
6.379862e-07
9.689597e-07
1.430171e-06
2.053972e-06
2.873886e-06
3.922590e-06
5.229835e-06
6.820711e-06
8.714695e-06
1.092589e-05
1.346474e-05
1.634127e-05
1.956981e-05
2.317469e-05
2.719643e-05
3.169763e-05
3.676779e-05
4.252615e-05
4.912179e-05
5.673040e-05
6.554729e-05
7.577661e-05
8.761723e-05
1.012462e-04
1.168016e-04