# vtk DataFile Version 3.0
Resultado Projeto 3
ASCII
DATASET STRUCTURED_GRID
DIMENSIONS 140 60 1 
POINTS 8400 double
0.000000e+00 0.000000e+00 0.000000e+00
2.517986e-02 0.000000e+00 0.000000e+00
5.035971e-02 0.000000e+00 0.000000e+00
7.553957e-02 0.000000e+00 0.000000e+00
1.007194e-01 0.000000e+00 0.000000e+00
1.258993e-01 0.000000e+00 0.000000e+00
1.510791e-01 0.000000e+00 0.000000e+00
1.762590e-01 0.000000e+00 0.000000e+00
2.014388e-01 0.000000e+00 0.000000e+00
2.266187e-01 0.000000e+00 0.000000e+00
2.517986e-01 0.000000e+00 0.000000e+00
2.769784e-01 0.000000e+00 0.000000e+00
3.021583e-01 0.000000e+00 0.000000e+00
3.273381e-01 0.000000e+00 0.000000e+00
3.525180e-01 0.000000e+00 0.000000e+00
3.776978e-01 0.000000e+00 0.000000e+00
4.028777e-01 0.000000e+00 0.000000e+00
4.280576e-01 0.000000e+00 0.000000e+00
4.532374e-01 0.000000e+00 0.000000e+00
4.784173e-01 0.000000e+00 0.000000e+00
5.035971e-01 0.000000e+00 0.000000e+00
5.287770e-01 0.000000e+00 0.000000e+00
5.539568e-01 0.000000e+00 0.000000e+00
5.791367e-01 0.000000e+00 0.000000e+00
6.043165e-01 0.000000e+00 0.000000e+00
6.294964e-01 0.000000e+00 0.000000e+00
6.546763e-01 0.000000e+00 0.000000e+00
6.798561e-01 0.000000e+00 0.000000e+00
7.050360e-01 0.000000e+00 0.000000e+00
7.302158e-01 0.000000e+00 0.000000e+00
7.553957e-01 0.000000e+00 0.000000e+00
7.805755e-01 0.000000e+00 0.000000e+00
8.057554e-01 0.000000e+00 0.000000e+00
8.309353e-01 0.000000e+00 0.000000e+00
8.561151e-01 0.000000e+00 0.000000e+00
8.812950e-01 0.000000e+00 0.000000e+00
9.064748e-01 0.000000e+00 0.000000e+00
9.316547e-01 0.000000e+00 0.000000e+00
9.568345e-01 0.000000e+00 0.000000e+00
9.820144e-01 0.000000e+00 0.000000e+00
1.007194e+00 0.000000e+00 0.000000e+00
1.032374e+00 0.000000e+00 0.000000e+00
1.057554e+00 0.000000e+00 0.000000e+00
1.082734e+00 0.000000e+00 0.000000e+00
1.107914e+00 0.000000e+00 0.000000e+00
1.133094e+00 0.000000e+00 0.000000e+00
1.158273e+00 0.000000e+00 0.000000e+00
1.183453e+00 0.000000e+00 0.000000e+00
1.208633e+00 0.000000e+00 0.000000e+00
1.233813e+00 0.000000e+00 0.000000e+00
1.258993e+00 0.000000e+00 0.000000e+00
1.284173e+00 0.000000e+00 0.000000e+00
1.309353e+00 0.000000e+00 0.000000e+00
1.334532e+00 0.000000e+00 0.000000e+00
1.359712e+00 0.000000e+00 0.000000e+00
1.384892e+00 0.000000e+00 0.000000e+00
1.410072e+00 0.000000e+00 0.000000e+00
1.435252e+00 0.000000e+00 0.000000e+00
1.460432e+00 0.000000e+00 0.000000e+00
1.485612e+00 0.000000e+00 0.000000e+00
1.510791e+00 0.000000e+00 0.000000e+00
1.535971e+00 0.000000e+00 0.000000e+00
1.561151e+00 0.000000e+00 0.000000e+00
1.586331e+00 0.000000e+00 0.000000e+00
1.611511e+00 0.000000e+00 0.000000e+00
1.636691e+00 0.000000e+00 0.000000e+00
1.661871e+00 0.000000e+00 0.000000e+00
1.687050e+00 0.000000e+00 0.000000e+00
1.712230e+00 0.000000e+00 0.000000e+00
1.737410e+00 0.000000e+00 0.000000e+00
1.762590e+00 0.000000e+00 0.000000e+00
1.787770e+00 0.000000e+00 0.000000e+00
1.812950e+00 0.000000e+00 0.000000e+00
1.838129e+00 0.000000e+00 0.000000e+00
1.863309e+00 0.000000e+00 0.000000e+00
1.888489e+00 0.000000e+00 0.000000e+00
1.913669e+00 0.000000e+00 0.000000e+00
1.938849e+00 0.000000e+00 0.000000e+00
1.964029e+00 0.000000e+00 0.000000e+00
1.989209e+00 0.000000e+00 0.000000e+00
2.014388e+00 0.000000e+00 0.000000e+00
2.039568e+00 0.000000e+00 0.000000e+00
2.064748e+00 0.000000e+00 0.000000e+00
2.089928e+00 0.000000e+00 0.000000e+00
2.115108e+00 0.000000e+00 0.000000e+00
2.140288e+00 0.000000e+00 0.000000e+00
2.165468e+00 0.000000e+00 0.000000e+00
2.190647e+00 0.000000e+00 0.000000e+00
2.215827e+00 0.000000e+00 0.000000e+00
2.241007e+00 0.000000e+00 0.000000e+00
2.266187e+00 0.000000e+00 0.000000e+00
2.291367e+00 0.000000e+00 0.000000e+00
2.316547e+00 0.000000e+00 0.000000e+00
2.341727e+00 0.000000e+00 0.000000e+00
2.366906e+00 0.000000e+00 0.000000e+00
2.392086e+00 0.000000e+00 0.000000e+00
2.417266e+00 0.000000e+00 0.000000e+00
2.442446e+00 0.000000e+00 0.000000e+00
2.467626e+00 0.000000e+00 0.000000e+00
2.492806e+00 0.000000e+00 0.000000e+00
2.517986e+00 0.000000e+00 0.000000e+00
2.543165e+00 0.000000e+00 0.000000e+00
2.568345e+00 0.000000e+00 0.000000e+00
2.593525e+00 0.000000e+00 0.000000e+00
2.618705e+00 0.000000e+00 0.000000e+00
2.643885e+00 0.000000e+00 0.000000e+00
2.669065e+00 0.000000e+00 0.000000e+00
2.694245e+00 0.000000e+00 0.000000e+00
2.719424e+00 0.000000e+00 0.000000e+00
2.744604e+00 0.000000e+00 0.000000e+00
2.769784e+00 0.000000e+00 0.000000e+00
2.794964e+00 0.000000e+00 0.000000e+00
2.820144e+00 0.000000e+00 0.000000e+00
2.845324e+00 0.000000e+00 0.000000e+00
2.870504e+00 0.000000e+00 0.000000e+00
2.895683e+00 0.000000e+00 0.000000e+00
2.920863e+00 0.000000e+00 0.000000e+00
2.946043e+00 0.000000e+00 0.000000e+00
2.971223e+00 0.000000e+00 0.000000e+00
2.996403e+00 0.000000e+00 0.000000e+00
3.021583e+00 0.000000e+00 0.000000e+00
3.046763e+00 0.000000e+00 0.000000e+00
3.071942e+00 0.000000e+00 0.000000e+00
3.097122e+00 0.000000e+00 0.000000e+00
3.122302e+00 0.000000e+00 0.000000e+00
3.147482e+00 0.000000e+00 0.000000e+00
3.172662e+00 0.000000e+00 0.000000e+00
3.197842e+00 0.000000e+00 0.000000e+00
3.223022e+00 0.000000e+00 0.000000e+00
3.248201e+00 0.000000e+00 0.000000e+00
3.273381e+00 0.000000e+00 0.000000e+00
3.298561e+00 0.000000e+00 0.000000e+00
3.323741e+00 0.000000e+00 0.000000e+00
3.348921e+00 0.000000e+00 0.000000e+00
3.374101e+00 0.000000e+00 0.000000e+00
3.399281e+00 0.000000e+00 0.000000e+00
3.424460e+00 0.000000e+00 0.000000e+00
3.449640e+00 0.000000e+00 0.000000e+00
3.474820e+00 0.000000e+00 0.000000e+00
3.500000e+00 0.000000e+00 0.000000e+00
0.000000e+00 1.694915e-02 0.000000e+00
2.517986e-02 1.694915e-02 0.000000e+00
5.035971e-02 1.694915e-02 0.000000e+00
7.553957e-02 1.694915e-02 0.000000e+00
1.007194e-01 1.694915e-02 0.000000e+00
1.258993e-01 1.694915e-02 0.000000e+00
1.510791e-01 1.694915e-02 0.000000e+00
1.762590e-01 1.694915e-02 0.000000e+00
2.014388e-01 1.694915e-02 0.000000e+00
2.266187e-01 1.694915e-02 0.000000e+00
2.517986e-01 1.694915e-02 0.000000e+00
2.769784e-01 1.694915e-02 0.000000e+00
3.021583e-01 1.694915e-02 0.000000e+00
3.273381e-01 1.694915e-02 0.000000e+00
3.525180e-01 1.694915e-02 0.000000e+00
3.776978e-01 1.694915e-02 0.000000e+00
4.028777e-01 1.694915e-02 0.000000e+00
4.280576e-01 1.694915e-02 0.000000e+00
4.532374e-01 1.694915e-02 0.000000e+00
4.784173e-01 1.694915e-02 0.000000e+00
5.035971e-01 1.694915e-02 0.000000e+00
5.287770e-01 1.694915e-02 0.000000e+00
5.539568e-01 1.694915e-02 0.000000e+00
5.791367e-01 1.694915e-02 0.000000e+00
6.043165e-01 1.694915e-02 0.000000e+00
6.294964e-01 1.694915e-02 0.000000e+00
6.546763e-01 1.694915e-02 0.000000e+00
6.798561e-01 1.694915e-02 0.000000e+00
7.050360e-01 1.694915e-02 0.000000e+00
7.302158e-01 1.694915e-02 0.000000e+00
7.553957e-01 1.694915e-02 0.000000e+00
7.805755e-01 1.694915e-02 0.000000e+00
8.057554e-01 1.694915e-02 0.000000e+00
8.309353e-01 1.694915e-02 0.000000e+00
8.561151e-01 1.694915e-02 0.000000e+00
8.812950e-01 1.694915e-02 0.000000e+00
9.064748e-01 1.694915e-02 0.000000e+00
9.316547e-01 1.694915e-02 0.000000e+00
9.568345e-01 1.694915e-02 0.000000e+00
9.820144e-01 1.694915e-02 0.000000e+00
1.007194e+00 1.694915e-02 0.000000e+00
1.032374e+00 1.694915e-02 0.000000e+00
1.057554e+00 1.694915e-02 0.000000e+00
1.082734e+00 1.694915e-02 0.000000e+00
1.107914e+00 1.694915e-02 0.000000e+00
1.133094e+00 1.694915e-02 0.000000e+00
1.158273e+00 1.694915e-02 0.000000e+00
1.183453e+00 1.694915e-02 0.000000e+00
1.208633e+00 1.694915e-02 0.000000e+00
1.233813e+00 1.694915e-02 0.000000e+00
1.258993e+00 1.694915e-02 0.000000e+00
1.284173e+00 1.694915e-02 0.000000e+00
1.309353e+00 1.694915e-02 0.000000e+00
1.334532e+00 1.694915e-02 0.000000e+00
1.359712e+00 1.694915e-02 0.000000e+00
1.384892e+00 1.694915e-02 0.000000e+00
1.410072e+00 1.694915e-02 0.000000e+00
1.435252e+00 1.694915e-02 0.000000e+00
1.460432e+00 1.694915e-02 0.000000e+00
1.485612e+00 1.694915e-02 0.000000e+00
1.510791e+00 1.694915e-02 0.000000e+00
1.535971e+00 1.694915e-02 0.000000e+00
1.561151e+00 1.694915e-02 0.000000e+00
1.586331e+00 1.694915e-02 0.000000e+00
1.611511e+00 1.694915e-02 0.000000e+00
1.636691e+00 1.694915e-02 0.000000e+00
1.661871e+00 1.694915e-02 0.000000e+00
1.687050e+00 1.694915e-02 0.000000e+00
1.712230e+00 1.694915e-02 0.000000e+00
1.737410e+00 1.694915e-02 0.000000e+00
1.762590e+00 1.694915e-02 0.000000e+00
1.787770e+00 1.694915e-02 0.000000e+00
1.812950e+00 1.694915e-02 0.000000e+00
1.838129e+00 1.694915e-02 0.000000e+00
1.863309e+00 1.694915e-02 0.000000e+00
1.888489e+00 1.694915e-02 0.000000e+00
1.913669e+00 1.694915e-02 0.000000e+00
1.938849e+00 1.694915e-02 0.000000e+00
1.964029e+00 1.694915e-02 0.000000e+00
1.989209e+00 1.694915e-02 0.000000e+00
2.014388e+00 1.694915e-02 0.000000e+00
2.039568e+00 1.694915e-02 0.000000e+00
2.064748e+00 1.694915e-02 0.000000e+00
2.089928e+00 1.694915e-02 0.000000e+00
2.115108e+00 1.694915e-02 0.000000e+00
2.140288e+00 1.694915e-02 0.000000e+00
2.165468e+00 1.694915e-02 0.000000e+00
2.190647e+00 1.694915e-02 0.000000e+00
2.215827e+00 1.694915e-02 0.000000e+00
2.241007e+00 1.694915e-02 0.000000e+00
2.266187e+00 1.694915e-02 0.000000e+00
2.291367e+00 1.694915e-02 0.000000e+00
2.316547e+00 1.694915e-02 0.000000e+00
2.341727e+00 1.694915e-02 0.000000e+00
2.366906e+00 1.694915e-02 0.000000e+00
2.392086e+00 1.694915e-02 0.000000e+00
2.417266e+00 1.694915e-02 0.000000e+00
2.442446e+00 1.694915e-02 0.000000e+00
2.467626e+00 1.694915e-02 0.000000e+00
2.492806e+00 1.694915e-02 0.000000e+00
2.517986e+00 1.694915e-02 0.000000e+00
2.543165e+00 1.694915e-02 0.000000e+00
2.568345e+00 1.694915e-02 0.000000e+00
2.593525e+00 1.694915e-02 0.000000e+00
2.618705e+00 1.694915e-02 0.000000e+00
2.643885e+00 1.694915e-02 0.000000e+00
2.669065e+00 1.694915e-02 0.000000e+00
2.694245e+00 1.694915e-02 0.000000e+00
2.719424e+00 1.694915e-02 0.000000e+00
2.744604e+00 1.694915e-02 0.000000e+00
2.769784e+00 1.694915e-02 0.000000e+00
2.794964e+00 1.694915e-02 0.000000e+00
2.820144e+00 1.694915e-02 0.000000e+00
[...]
POINT_DATA 8400
SCALARS RES_Cont double
LOOKUP_TABLE default
0.000000e+00
0.000000e+00
0.000000e+00
0.000000e+00
0.000000e+00
0.000000e+00
0.000000e+00
0.000000e+00
0.000000e+00
0.000000e+00
0.000000e+00
0.000000e+00
0.000000e+00
0.000000e+00
0.000000e+00
0.000000e+00
0.000000e+00
0.000000e+00
0.000000e+00
0.000000e+00
0.000000e+00
0.000000e+00
0.000000e+00
0.000000e+00
0.000000e+00
0.000000e+00
0.000000e+00
0.000000e+00
0.000000e+00
0.000000e+00
0.000000e+00
0.000000e+00
0.000000e+00
0.000000e+00
0.000000e+00
0.000000e+00
0.000000e+00
0.000000e+00
0.000000e+00
0.000000e+00
0.000000e+00
0.000000e+00
0.000000e+00
0.000000e+00
0.000000e+00
0.000000e+00
0.000000e+00
0.000000e+00
0.000000e+00
0.000000e+00
0.000000e+00
0.000000e+00
0.000000e+00
0.000000e+00
0.000000e+00
0.000000e+00
0.000000e+00
0.000000e+00
0.000000e+00
0.000000e+00
0.000000e+00
0.000000e+00
0.000000e+00
0.000000e+00
0.000000e+00
0.000000e+00
0.000000e+00
0.000000e+00
0.000000e+00
0.000000e+00
0.000000e+00
0.000000e+00
0.000000e+00
0.000000e+00
0.000000e+00
0.000000e+00
0.000000e+00
0.000000e+00
0.000000e+00
0.000000e+00
0.000000e+00
0.000000e+00
0.000000e+00
0.000000e+00
0.000000e+00
0.000000e+00
0.000000e+00
0.000000e+00
0.000000e+00
0.000000e+00
0.000000e+00
0.000000e+00
0.000000e+00
0.000000e+00
0.000000e+00
0.000000e+00
0.000000e+00
0.000000e+00
0.000000e+00
0.000000e+00
0.000000e+00
0.000000e+00
0.000000e+00
0.000000e+00
0.000000e+00
0.000000e+00
0.000000e+00
0.000000e+00
0.000000e+00
0.000000e+00
0.000000e+00
0.000000e+00
0.000000e+00
0.000000e+00
0.000000e+00
0.000000e+00
0.000000e+00
0.000000e+00
0.000000e+00
0.000000e+00
0.000000e+00
0.000000e+00
0.000000e+00
0.000000e+00
0.000000e+00
0.000000e+00
0.000000e+00
0.000000e+00
0.000000e+00
0.000000e+00
0.000000e+00
0.000000e+00
0.000000e+00
0.000000e+00
0.000000e+00
0.000000e+00
0.000000e+00
0.000000e+00
0.000000e+00
0.000000e+00
0.000000e+00
-0.000000e+00
-0.000000e+00
-0.000000e+00
-0.000000e+00
-0.000000e+00
-0.000000e+00
3.951571e-19
-2.766100e-18
2.082467e-18
-9.089700e-20
-4.179766e-18
-8.663792e-19
2.416391e-18
2.578590e-19
1.793992e-18
-1.484016e-18
-2.249020e-18
-5.253776e-19
1.909380e-18
-1.270536e-18
4.132212e-18
-7.431019e-19
1.456216e-18
-3.120889e-18
3.624877e-19
4.338613e-18
-2.664903e-18
-8.283298e-19
1.550128e-18
2.059500e-18
-2.373046e-18
-2.794054e-18
3.644665e-18
4.348978e-18
6.850600e-20
-7.551075e-19
2.135495e-18
4.542930e-18
-1.444461e-18
4.364301e-18
1.419136e-18
-2.115780e-18
3.040733e-18
9.791791e-19
2.230853e-18
1.870697e-18
-3.274198e-18
-4.412364e-18
-7.431983e-18
-2.747114e-18
-1.605012e-18
3.002829e-18
-8.221352e-19
1.343509e-18
2.810281e-18
3.801664e-18
9.694279e-19
-4.693776e-18
8.455022e-20
-4.075553e-18
-5.855134e-18
3.913553e-18
5.010068e-18
2.264649e-18
-4.336111e-18
-6.728289e-18
-9.422904e-18
-1.266865e-17
-1.589543e-17
7.428895e-18
2.532321e-17
1.707268e-17
2.600516e-18
-2.554024e-18
-2.870008e-18
-1.750128e-17
-1.713340e-17
-1.969526e-17
1.817283e-17
2.211262e-17
3.004441e-17
4.823868e-19
1.071558e-17
5.514318e-17
3.294336e-17
-1.357477e-17
6.263453e-18
1.537076e-17
1.159260e-16
3.458548e-16
1.085762e-15
3.276066e-15
9.435728e-15
2.649888e-14
7.255207e-14
1.935097e-13
5.028865e-13
1.273902e-12
3.146365e-12
7.580145e-12
1.781866e-11
4.088170e-11
9.157036e-11
2.002876e-10
4.278727e-10
8.929196e-10
1.820585e-09
3.627124e-09
7.061660e-09
1.343605e-08
2.498456e-08
4.540536e-08
8.064225e-08
1.399604e-07
2.373469e-07
3.932110e-07
6.362672e-07
1.005341e-06
1.550664e-06
2.334046e-06
3.427193e-06
4.907443e-06
6.850472e-06
9.320039e-06
1.235562e-05
1.595973e-05
2.008727e-05
2.463967e-05
2.946585e-05
3.437070e-05
3.913049e-05
4.351260e-05
4.729636e-05
5.029165e-05
5.235300e-05
5.338786e-05
5.335982e-05
5.228789e-05
0.000000e+00
0.000000e+00
-0.000000e+00
-0.000000e+00
-0.000000e+00
-0.000000e+00
-0.000000e+00
3.951571e-19
-5.927357e-19
1.778207e-18
7.903142e-19
-4.164934e-18
-2.675203e-18
5.684329e-18
1.580628e-18
-2.141795e-18
-1.059195e-18
-1.647168e-18
3.473138e-18
-1.541714e-18
-2.948863e-18
-1.466376e-18
-1.188830e-18
-6.450608e-19
-1.506236e-18
1.050624e-18
-3.108179e-19
-1.920235e-18
-4.955105e-19
3.761654e-19
1.157509e-18
-4.936463e-18
-1.155415e-18
2.455278e-19
5.316550e-19
2.620430e-18
1.400238e-18
-2.107697e-18
-1.159894e-18
-3.314508e-18
8.947683e-19
4.323399e-18
3.989923e-18
8.413603e-19
1.763174e-18
7.088411e-19
-4.078772e-18
1.169276e-18
-2.032556e-18
2.392033e-18
9.993248e-19
8.073726e-19
2.284301e-18
2.351704e-18
4.600488e-18
-2.696618e-18
-9.384843e-19
3.804071e-18
-9.242103e-19
2.687286e-18
-3.549883e-18
3.215563e-19
3.196119e-18
3.765847e-18
8.761280e-18
3.158149e-18
-9.404190e-18
-2.208438e-17
-1.537830e-17
4.305470e-19
-8.297704e-18
1.505162e-17
-1.228023e-18
-6.840342e-18
-7.928314e-18
-1.760123e-17
1.285765e-17
9.553939e-18
-1.112531e-18
-3.416459e-17
-1.582382e-17
-2.152513e-17
-1.917361e-18
2.598016e-17
1.733039e-18
2.212043e-17
1.208242e-17
7.721159e-18
9.527666e-18
2.042771e-17
7.837685e-17
3.328940e-16
1.070852e-15
3.209463e-15
9.294731e-15
2.614569e-14
7.157838e-14
1.911234e-13
4.970259e-13
1.259796e-12
3.113371e-12
7.504538e-12
1.764960e-11
4.051239e-11
9.078201e-11
1.986430e-10
4.245201e-10
8.862419e-10
1.807593e-09
3.602441e-09
7.015870e-09
1.335312e-08
2.483793e-08
4.515217e-08
8.021511e-08
1.392560e-07
2.362103e-07
3.914159e-07
6.334901e-07
1.001132e-06
1.544419e-06
2.324983e-06
3.414346e-06
4.889698e-06
6.826651e-06
9.289045e-06
1.231665e-05
1.591251e-05
2.003230e-05
2.457838e-05
2.940060e-05
3.430468e-05
3.906740e-05
4.345622e-05
4.725011e-05
5.025823e-05
5.233408e-05
5.338403e-05
5.337063e-05
5.231204e-05
0.000000e+00
0.000000e+00
-0.000000e+00
-0.000000e+00
-0.000000e+00
-0.000000e+00
-0.000000e+00
-7.903142e-19
3.860674e-18
3.465517e-18
-2.281951e-19
-1.459115e-18
2.599138e-18
1.808823e-18
-3.433948e-18
-2.306852e-18
-5.389186e-18
-1.852367e-18
1.842022e-18
-2.068195e-18
-2.390579e-18
2.868085e-18
1.190351e-18
3.096671e-18
2.665746e-18
3.300521e-18
-3.529972e-19
-3.812001e-18
-5.929693e-18
5.118775e-18
3.257033e-18
3.959792e-18
4.709713e-18
5.980059e-18
3.222058e-18
-2.610998e-18
-1.764448e-18
-9.355178e-19
5.835725e-18
3.837747e-18
2.946280e-18
-1.554788e-18
2.418748e-19
-1.623852e-18
-2.403793e-18
-6.722430e-19
-2.398725e-18
5.183946e-18
2.719379e-18
2.338238e-18
1.702548e-18
5.022372e-18
4.183823e-18
7.095613e-18
5.969205e-19
3.476801e-18
9.543572e-20
8.155458e-18
2.034332e-18
-4.427511e-18
-1.179124e-18
7.263703e-18
5.333607e-18
7.178734e-18
4.280015e-19
-6.834766e-18
-1.471223e-17
-2.331131e-17
-3.456201e-18
4.384414e-19
2.685468e-17
2.021927e-17
9.653058e-18
-1.118660e-17
-1.201837e-18
-2.304974e-17
-1.212103e-17
2.627847e-17
-3.742255e-18
-1.529621e-17
-1.038879e-17
-3.164410e-17
-1.761472e-17
-1.521072e-17
-9.629510e-18
-3.280705e-18
1.733668e-17
5.110701e-18
-5.945406e-18
2.719291e-17
6.058691e-17
2.954208e-16
1.045620e-15
3.101564e-15
9.024285e-15
2.550272e-14
6.995891e-14
1.870056e-13
4.869597e-13
1.235678e-12
3.056771e-12
7.375180e-12
1.736080e-11
3.988242e-11
8.943934e-11
1.958467e-10
4.188298e-10
8.749298e-10
1.785628e-09
3.560789e-09
6.938751e-09
1.321371e-08
2.459184e-08
4.472792e-08
7.950044e-08
1.380791e-07
2.343143e-07
3.884261e-07
6.288744e-07
9.941556e-07
1.534099e-06
2.310061e-06
3.393292e-06
4.860767e-06
6.788033e-06
9.239103e-06
1.225425e-05
1.583739e-05
1.994541e-05
2.448211e-05
2.929877e-05
3.420228e-05
3.897012e-05
4.336979e-05
4.717966e-05
5.020768e-05
5.230582e-05
5.337880e-05
5.338765e-05
5.234933e-05
0.000000e+00
0.000000e+00
-0.000000e+00
-0.000000e+00
-0.000000e+00
-0.000000e+00
3.951571e-19
-1.778207e-18
6.994172e-19
-7.903142e-19
-1.702142e-18
-2.690035e-18
-4.099891e-19
-2.567569e-18
-1.867199e-18
3.484159e-18
3.250249e-18
1.704966e-19
5.714947e-19
3.151698e-18
4.102155e-18
6.475930e-19
-2.586798e-18
-1.789318e-18
2.385772e-19
-1.857188e-18
6.896002e-19
-7.727373e-19
-3.231563e-18
1.492603e-18
2.659458e-18
4.718660e-19
1.205540e-18
1.769388e-18
1.247173e-18
-4.222590e-18
-3.681831e-18
1.212710e-18
-1.869069e-18
1.684053e-18
2.793197e-19
8.375291e-19
-4.986617e-18
-1.159132e-18
5.909380e-18
1.569377e-18
3.640548e-18
-6.166343e-19
-3.758335e-18
-4.706839e-18
-8.321163e-18
-1.304836e-17
-5.481377e-18
4.792093e-18
-1.419009e-18
-8.194026e-18
4.063336e-18
1.768134e-18
-3.409499e-18
-1.055902e-17
-4.978870e-18
9.889507e-18
1.719357e-17
1.401185e-17
-1.024746e-17
-8.531829e-18
-7.922553e-18
-0.000000e+00
4.398081e-18
1.712808e-17
8.948729e-19
-8.974703e-18
7.721537e-18
2.904936e-18
-8.117270e-18
-1.339604e-17
8.844082e-18
4.810401e-18
8.427599e-18
5.537796e-18
-1.602509e-17
-1.566725e-17
-1.880236e-17
-2.936418e-17
-2.097476e-18
1.415371e-17
-1.521450e-17
2.168910e-17
1.668804e-17
3.713084e-17
9.784985e-17
2.908150e-16
9.929572e-16
2.956700e-15
8.670568e-15
2.455857e-14
6.764116e-14
1.811128e-13
4.725522e-13
1.201071e-12
2.975833e-12
7.190071e-12
1.694754e-11
3.898117e-11
8.751893e-11
1.918488e-10
4.106983e-10
8.587731e-10
1.754272e-09
3.501360e-09
6.828758e-09
1.301492e-08
2.424096e-08
4.412293e-08
7.848114e-08
1.364001e-07
2.316096e-07
3.841628e-07
6.222979e-07
9.842293e-07
1.519448e-06
2.288937e-06
3.363584e-06
4.820098e-06
6.733959e-06
9.169443e-06
1.216753e-05
1.573333e-05
1.982538e-05
2.434939e-05
2.915856e-05
3.406135e-05
3.883617e-05
4.325059e-05
4.708215e-05
5.013725e-05
5.226581e-05
5.337035e-05
5.340988e-05
5.239972e-05
0.000000e+00
0.000000e+00
-0.000000e+00
-0.000000e+00
-0.000000e+00
-0.000000e+00
-1.383050e-18
5.927357e-19
-5.152827e-18
-4.255831e-18
-1.732758e-18
-1.383050e-18
-6.381842e-19
-2.567569e-18
-3.626354e-19
2.245619e-18
-1.634516e-18
5.129547e-18
-2.904785e-18
1.447926e-18
1.485018e-18
2.474472e-18
2.063970e-19
-1.207851e-18
-1.643661e-18
3.185353e-19
1.535274e-19
3.910869e-18
8.446847e-19
4.646220e-18
5.742825e-18
2.458914e-18
-1.541644e-18
-2.662093e-18
3.682130e-18
-1.187114e-18
-4.610796e-18
-2.240880e-18
-3.222895e-18
-1.124593e-18
-1.906516e-18
-4.252066e-18
8.258426e-19
2.151151e-18
-3.415134e-18
4.952486e-18
3.616244e-18
-2.362990e-19
1.229219e-18
6.275464e-18
7.004422e-18
-9.686424e-18
-2.311481e-17
-3.715353e-18
2.263309e-17
2.324337e-18
-1.066931e-17
-2.893836e-18
6.566176e-18
3.953634e-19
-5.413257e-18
-8.567864e-18
-2.886796e-18
1.483239e-17
2.426952e-17
2.316771e-17
2.607741e-18
1.543756e-17
2.718453e-17
3.302213e-18
-6.050256e-18
-2.709257e-17
-1.593462e-17
1.988418e-17
9.501697e-18
-5.730916e-18
-1.533250e-19
7.884028e-18
8.264608e-18
8.963217e-19
2.477732e-18
1.263398e-17
-1.902410e-17
-1.985354e-17
5.199963e-18
-1.076967e-17
1.730202e-17
2.604946e-17
3.292790e-17
7.158279e-17
8.534442e-17
3.001570e-16
9.322381e-16
2.805784e-15
8.209173e-15
2.339681e-14
6.460098e-14
1.735486e-13
4.538474e-13
1.156202e-12
2.870758e-12
6.949852e-12
1.641082e-11
3.780996e-11
8.502234e-11
1.866497e-10
4.001219e-10
8.377558e-10
1.713478e-09
3.424022e-09
6.685567e-09
1.275598e-08
2.378359e-08
4.333368e-08
7.715019e-08
1.342061e-07
2.280729e-07
3.785872e-07
6.137009e-07
9.712682e-07
1.500354e-06
2.261477e-06
3.325087e-06
4.767577e-06
6.664368e-06
9.080084e-06
1.205659e-05
1.560048e-05
1.967231e-05
2.418015e-05
2.897956e-05
3.388098e-05
3.866399e-05
4.309636e-05
4.695472e-05
5.004365e-05
5.221060e-05
5.335542e-05
5.343457e-05
5.246125e-05
0.000000e+00
0.000000e+00
-0.000000e+00
-0.000000e+00
-0.000000e+00
-0.000000e+00
1.975786e-18
-3.572198e-18
-2.872781e-18
1.930337e-18
-4.741885e-18
-5.046145e-18
-5.030361e-18
1.337601e-18
9.673453e-19
9.851687e-19
1.162058e-18
-4.987653e-18
-1.634434e-20
-3.361351e-18
-2.020985e-18
-3.930343e-18
-3.967699e-18
1.063976e-18
-2.578344e-18
1.346780e-18
3.157404e-18
-7.337286e-19
4.692545e-19
-1.999479e-18
2.458834e-18
1.340561e-18
9.292433e-20
-6.229246e-19
-2.974289e-18
-1.365804e-18
-4.535923e-18
8.606943e-19
-4.843971e-20
8.570369e-19
-3.338216e-18
3.824120e-18
3.944125e-18
-1.282860e-18
-5.428027e-18
1.181232e-19
2.020891e-18
5.806196e-18
6.904838e-18
1.149690e-17
1.121722e-17
4.182579e-18
-6.303835e-18
9.398605e-18
2.058641e-17
-7.427852e-18
-8.641708e-19
-9.260051e-18
1.559663e-18
-9.244245e-18
-1.841543e-17
-3.473337e-17
-2.986926e-18
2.220139e-17
2.364989e-17
1.482582e-17
1.724798e-17
5.801542e-18
1.741291e-17
-7.953553e-18
-9.597113e-18
-9.280143e-18
-4.937439e-18
-3.061407e-18
4.743127e-18
2.032858e-17
-4.729448e-18
1.805714e-17
-1.151390e-17
3.821114e-18
-1.430780e-17
1.010173e-18
1.016233e-18
1.511071e-17
-2.000799e-17
-1.621888e-17
2.349159e-17
1.982076e-17
2.020481e-17
3.058902e-17
7.240410e-17
2.761121e-16
8.516679e-16
2.602316e-15
7.688617e-15
2.199285e-14
6.098973e-14
1.643765e-13
4.312108e-13
1.101736e-12
2.743003e-12
6.657183e-12
1.575619e-11
3.637981e-11
8.197083e-11
1.802899e-10
3.871746e-10
8.120095e-10
1.663469e-09
3.329143e-09
6.509738e-09
1.243769e-08
2.322069e-08
4.236102e-08
7.550774e-08
1.314953e-07
2.236993e-07
3.716892e-07
6.030674e-07
9.552525e-07
1.476800e-06
2.227687e-06
3.277858e-06
4.703356e-06
6.579557e-06
8.971515e-06
1.192214e-05
1.543973e-05
1.948721e-05
2.397535e-05
2.876249e-05
3.366138e-05
3.845312e-05
4.290581e-05
4.679522e-05
4.992396e-05
5.213675e-05
5.333035e-05
5.345820e-05
5.253087e-05
0.000000e+00
0.000000e+00
-0.000000e+00
-0.000000e+00
-0.000000e+00
1.975786e-19
1.094574e-18
-3.556414e-18
2.051851e-18
3.723376e-18
1.139070e-18
2.856997e-18
8.812112e-19
9.376813e-19
4.742136e-19
2.466051e-18
-5.488397e-18
-1.327808e-18
-2.137768e-18
2.070610e-19
-4.688545e-18
-3.854506e-18
-4.145058e-18
1.252598e-18
3.128144e-18
-2.789265e-18
-4.161122e-18
-3.406079e-18
-4.204551e-18
-5.715708e-18
-3.557488e-18
-5.917167e-18
-7.042314e-19
9.027059e-19
4.279492e-18
-5.419363e-19
1.882856e-18
2.715539e-18
2.341960e-18
-1.261453e-19
4.745285e-18
5.700263e-18
6.069176e-18
-4.695426e-18
-4.212670e-18
1.490213e-19
9.230146e-19
1.346748e-18
2.244231e-19
-1.021381e-19
1.072094e-17
1.714330e-17
7.899260e-18
2.169920e-18
7.582132e-18
-6.833306e-19
8.650642e-18
7.789746e-18
-1.586010e-17
-2.376084e-17
-3.845688e-18
-1.050540e-17
-2.136535e-19
6.897747e-18
1.093708e-17
1.995010e-17
-1.117000e-18
9.576826e-18
6.160065e-19
1.286670e-17
5.979995e-18
7.163654e-18
-1.799520e-17
-5.714248e-18
4.782736e-19
1.977961e-17
-4.363223e-18
1.758579e-18
1.075448e-17
1.644948e-18
-9.979469e-18
-9.067714e-18
-1.566776e-18
4.049837e-18
2.026922e-17
-1.127745e-17
-5.945495e-17
1.899066e-18
2.250417e-17
5.686373e-17
9.636312e-17
2.579017e-16
7.804338e-16
2.373247e-15
7.106716e-15
2.039952e-14
5.680116e-14
1.537834e-13
4.050194e-13
1.038676e-12
2.594683e-12
6.316689e-12
1.499309e-11
3.470998e-11
7.840262e-11
1.728432e-10
3.719958e-10
7.817896e-10
1.604699e-09
3.217501e-09
6.302557e-09
1.206207e-08
2.255533e-08
4.120938e-08
7.355985e-08
1.282756e-07
2.184989e-07
3.634822e-07
5.904163e-07
9.362126e-07
1.448842e-06
2.187667e-06
3.222075e-06
4.627736e-06
6.480005e-06
8.844442e-06
1.176514e-05
1.525233e-05
1.927150e-05
2.373649e-05
2.850870e-05
3.340357e-05
3.820397e-05
4.267861e-05
4.660248e-05
4.977622e-05
5.204165e-05
5.329213e-05
5.347766e-05
5.260570e-05
0.000000e+00
0.000000e+00
-0.000000e+00
-0.000000e+00
-0.000000e+00
-1.383050e-18
3.951571e-18
2.370943e-18
-1.975786e-19
-3.860674e-18
-2.477624e-18
2.385775e-18
3.612884e-18
9.521038e-19
-4.515328e-18
1.064902e-18
-4.188298e-19
-1.216548e-18
-2.440564e-19
-1.517235e-18
-3.029095e-18
-1.894020e-18
2.821182e-18
3.791005e-18
-6.564316e-18
-8.792442e-19
-4.505859e-18
5.742524e-18
-1.985333e-18
-1.477350e-18
-9.120768e-19
4.975771e-19
-2.765737e-18
9.192032e-19
2.932005e-19
3.022295e-18
-1.335061e-18
4.638229e-18
-6.245556e-19
1.466769e-18
2.477055e-19
6.986403e-19
-1.973573e-18
1.790974e-18
3.035789e-18
4.229964e-18
2.504289e-19
-6.579583e-18
-5.944919e-18
1.109258e-18
2.965191e-18
2.811326e-18
2.829642e-18
1.142049e-17
6.552256e-18
-2.680374e-19
-3.075548e-18
-8.410673e-18
-1.754663e-17
-6.299934e-18
2.982778e-18
-2.352988e-18
-7.782282e-18
7.460962e-18
1.021885e-17
-1.118067e-18
-1.719623e-17
-3.331448e-17
-8.557224e-18
2.468433e-17
-9.138574e-18
-8.278183e-18
-7.308691e-18
-1.791788e-17
-1.998342e-17
1.541490e-18
-1.858470e-17
1.134996e-17
-2.233765e-18
4.925786e-18
-5.131638e-18
-1.393670e-19
-1.254447e-18
-3.238597e-18
-0.000000e+00
3.948016e-18
-2.930059e-17
-1.264634e-17
1.694300e-17
5.859110e-17
1.228963e-16
2.443680e-16
7.216365e-16
2.169067e-15
6.436289e-15
1.857145e-14
5.215972e-14
1.419904e-13
3.758852e-13
9.682711e-13
2.428544e-12
5.934306e-12
1.413406e-11
3.282618e-11
7.436918e-11
1.644102e-10
3.547769e-10
7.474501e-10
1.537806e-09
3.090205e-09
6.065895e-09
1.163218e-08
2.179235e-08
3.988617e-08
7.131761e-08
1.245633e-07
2.124950e-07
3.539997e-07
5.757963e-07
9.142204e-07
1.416588e-06
2.141582e-06
3.157988e-06
4.541092e-06
6.366257e-06
8.699630e-06
1.158661e-05
1.503952e-05
1.902668e-05
2.346519e-05
2.821981e-05
3.310894e-05
3.791754e-05
4.241514e-05
4.637619e-05
4.959940e-05
5.192365e-05
5.323871e-05
5.349076e-05
5.268369e-05
0.000000e+00
0.000000e+00
-0.000000e+00
3.951571e-19
1.975786e-19
-1.489731e-18
2.173364e-18
-3.541582e-18
-1.565796e-18
-4.103701e-18
-7.903142e-19
-2.616827e-18
3.724872e-18
3.879993e-18
-1.334476e-18
-2.741734e-18
-5.317667e-18
4.712375e-19
1.057796e-18
4.711190e-18
5.310376e-18
4.684933e-18
2.252990e-18
1.982909e-18
-4.373243e-19
3.101851e-18
1.948836e-18
-2.747363e-18
2.831140e-18
-3.879344e-19
2.615466e-19
5.282424e-18
4.184201e-18
2.200026e-18
1.250894e-18
-1.356908e-18
5.362084e-19
1.956863e-18
5.325357e-19
2.933746e-18
-1.475768e-18
2.874226e-18
4.722370e-18
-6.477834e-20
2.582353e-18
6.153980e-19
3.782899e-18
1.681917e-18
-5.604016e-18
-8.076789e-18
8.476057e-20
1.637539e-18
-7.636288e-19
1.339996e-19
1.903103e-18
-2.720221e-18
-3.267093e-18
-6.737799e-18
-2.668382e-18
1.221249e-17
1.456868e-17
1.301066e-18
-1.276629e-17
1.379927e-17
1.253158e-17
2.212645e-18
-5.457942e-18
-3.693356e-17
-1.297615e-17
2.010198e-17
1.197561e-17
-1.701873e-17
-5.848477e-18
-1.215684e-17
-2.489813e-17
-3.814183e-18
-1.149036e-17
-6.695138e-19
5.727856e-18
2.663640e-18
-1.542479e-17
1.593176e-17
1.965619e-17
-1.106383e-17
-9.313106e-18
2.124116e-18
2.471880e-17
-1.244546e-18
-2.226553e-17
2.360014e-17
1.116122e-16
2.234743e-16
6.533106e-16
1.957695e-15
5.718783e-15
1.668823e-14
4.716665e-14
1.293175e-13
3.443861e-13
8.918102e-13
2.247697e-12
5.516905e-12
1.319380e-11
3.075875e-11
6.993164e-11
1.551110e-10
3.357474e-10
7.094185e-10
1.463562e-09
2.948615e-09
5.802082e-09
1.115191e-08
2.093803e-08
3.840134e-08
6.879637e-08
1.203817e-07
2.057224e-07
3.432925e-07
5.592811e-07
8.893815e-07
1.380186e-06
2.089641e-06
3.085888e-06
4.443823e-06
6.238852e-06
8.537783e-06
1.138745e-05
1.480244e-05
1.875405e-05
2.316290e-05
2.789732e-05
3.277893e-05
3.759502e-05
4.211624e-05
4.611666e-05
4.939327e-05
5.178200e-05
5.316892e-05
5.349616e-05
5.276361e-05
0.000000e+00
0.000000e+00
-0.000000e+00
-1.185471e-18
-5.927357e-19
1.778207e-18
-2.884755e-19
1.185471e-18
-1.306985e-18
-2.203981e-18
-1.688672e-19
2.726910e-18
3.181938e-18
-2.379925e-18
-7.058013e-19
1.082809e-18
4.843226e-18
-2.623957e-18
-5.200868e-18
-1.486190e-18
-6.453578e-19
4.187716e-18
2.114603e-18
1.837030e-18
3.836054e-18
-6.901351e-20
-2.828760e-18
4.140432e-18
4.356489e-18
6.493755e-19
3.441297e-18
-8.577027e-19
3.371942e-18
-3.335797e-19
-3.929238e-18
1.333178e-18
-2.013230e-18
-3.664633e-18
-3.798007e-18
-2.071881e-18
-1.351811e-18
-5.157140e-18
-3.615032e-18
3.063956e-18
3.596318e-18
1.552588e-18
-5.173815e-19
1.356206e-19
-1.227250e-18
-1.804048e-18
5.180638e-18
-7.147612e-18
-1.555809e-17
-1.715149e-17
2.518964e-18
6.746619e-18
-6.414249e-19
1.621799e-17
2.496689e-17
1.116271e-17
6.091285e-18
1.147824e-17
1.560503e-18
9.907590e-18
-3.640903e-19
2.126701e-18
-3.074820e-18
-1.736000e-17
-1.342758e-17
-7.678452e-19
2.334742e-17
1.301504e-17
8.022021e-18
-1.690113e-17
-2.313103e-17
-1.550006e-18
1.964797e-17
2.564360e-18
-1.642589e-17
-9.279108e-18
-5.254719e-18
3.917340e-17
3.170971e-17
-6.164542e-18
-2.015218e-17
-1.046416e-17
1.372603e-17
-1.567639e-18
-3.380088e-19
7.831086e-18
7.570318e-17
2.050203e-16
5.452451e-16
1.634928e-15
5.009160e-15
1.469205e-14
4.192225e-14
1.159360e-13
3.110589e-13
8.107938e-13
2.055512e-12