# vtk DataFile Version 3.0
Resultado Projeto 3
ASCII
DATASET STRUCTURED_GRID
DIMENSIONS 140 60 1 
POINTS 8400 double
0.000000e+00 0.000000e+00 0.000000e+00
2.517986e-02 0.000000e+00 0.000000e+00
5.035971e-02 0.000000e+00 0.000000e+00
7.553957e-02 0.000000e+00 0.000000e+00
1.007194e-01 0.000000e+00 0.000000e+00
1.258993e-01 0.000000e+00 0.000000e+00
1.510791e-01 0.000000e+00 0.000000e+00
1.762590e-01 0.000000e+00 0.000000e+00
2.014388e-01 0.000000e+00 0.000000e+00
2.266187e-01 0.000000e+00 0.000000e+00
2.517986e-01 0.000000e+00 0.000000e+00
2.769784e-01 0.000000e+00 0.000000e+00
3.021583e-01 0.000000e+00 0.000000e+00
3.273381e-01 0.000000e+00 0.000000e+00
3.525180e-01 0.000000e+00 0.000000e+00
3.776978e-01 0.000000e+00 0.000000e+00
4.028777e-01 0.000000e+00 0.000000e+00
4.280576e-01 0.000000e+00 0.000000e+00
4.532374e-01 0.000000e+00 0.000000e+00
4.784173e-01 0.000000e+00 0.000000e+00
5.035971e-01 0.000000e+00 0.000000e+00
5.287770e-01 0.000000e+00 0.000000e+00
5.539568e-01 0.000000e+00 0.000000e+00
5.791367e-01 0.000000e+00 0.000000e+00
6.043165e-01 0.000000e+00 0.000000e+00
6.294964e-01 0.000000e+00 0.000000e+00
6.546763e-01 0.000000e+00 0.000000e+00
6.798561e-01 0.000000e+00 0.000000e+00
7.050360e-01 0.000000e+00 0.000000e+00
7.302158e-01 0.000000e+00 0.000000e+00
7.553957e-01 0.000000e+00 0.000000e+00
7.805755e-01 0.000000e+00 0.000000e+00
8.057554e-01 0.000000e+00 0.000000e+00
8.309353e-01 0.000000e+00 0.000000e+00
8.561151e-01 0.000000e+00 0.000000e+00
8.812950e-01 0.000000e+00 0.000000e+00
9.064748e-01 0.000000e+00 0.000000e+00
9.316547e-01 0.000000e+00 0.000000e+00
9.568345e-01 0.000000e+00 0.000000e+00
9.820144e-01 0.000000e+00 0.000000e+00
1.007194e+00 0.000000e+00 0.000000e+00
1.032374e+00 0.000000e+00 0.000000e+00
1.057554e+00 0.000000e+00 0.000000e+00
1.082734e+00 0.000000e+00 0.000000e+00
1.107914e+00 0.000000e+00 0.000000e+00
1.133094e+00 0.000000e+00 0.000000e+00
1.158273e+00 0.000000e+00 0.000000e+00
1.183453e+00 0.000000e+00 0.000000e+00
1.208633e+00 0.000000e+00 0.000000e+00
1.233813e+00 0.000000e+00 0.000000e+00
1.258993e+00 0.000000e+00 0.000000e+00
1.284173e+00 0.000000e+00 0.000000e+00
1.309353e+00 0.000000e+00 0.000000e+00
1.334532e+00 0.000000e+00 0.000000e+00
1.359712e+00 0.000000e+00 0.000000e+00
1.384892e+00 0.000000e+00 0.000000e+00
1.410072e+00 0.000000e+00 0.000000e+00
1.435252e+00 0.000000e+00 0.000000e+00
1.460432e+00 0.000000e+00 0.000000e+00
1.485612e+00 0.000000e+00 0.000000e+00
1.510791e+00 0.000000e+00 0.000000e+00
1.535971e+00 0.000000e+00 0.000000e+00
1.561151e+00 0.000000e+00 0.000000e+00
1.586331e+00 0.000000e+00 0.000000e+00
1.611511e+00 0.000000e+00 0.000000e+00
1.636691e+00 0.000000e+00 0.000000e+00
1.661871e+00 0.000000e+00 0.000000e+00
1.687050e+00 0.000000e+00 0.000000e+00
1.712230e+00 0.000000e+00 0.000000e+00
1.737410e+00 0.000000e+00 0.000000e+00
1.762590e+00 0.000000e+00 0.000000e+00
1.787770e+00 0.000000e+00 0.000000e+00
1.812950e+00 0.000000e+00 0.000000e+00
1.838129e+00 0.000000e+00 0.000000e+00
1.863309e+00 0.000000e+00 0.000000e+00
1.888489e+00 0.000000e+00 0.000000e+00
1.913669e+00 0.000000e+00 0.000000e+00
1.938849e+00 0.000000e+00 0.000000e+00
1.964029e+00 0.000000e+00 0.000000e+00
1.989209e+00 0.000000e+00 0.000000e+00
2.014388e+00 0.000000e+00 0.000000e+00
2.039568e+00 0.000000e+00 0.000000e+00
2.064748e+00 0.000000e+00 0.000000e+00
2.089928e+00 0.000000e+00 0.000000e+00
2.115108e+00 0.000000e+00 0.000000e+00
2.140288e+00 0.000000e+00 0.000000e+00
2.165468e+00 0.000000e+00 0.000000e+00
2.190647e+00 0.000000e+00 0.000000e+00
2.215827e+00 0.000000e+00 0.000000e+00
2.241007e+00 0.000000e+00 0.000000e+00
2.266187e+00 0.000000e+00 0.000000e+00
2.291367e+00 0.000000e+00 0.000000e+00
2.316547e+00 0.000000e+00 0.000000e+00
2.341727e+00 0.000000e+00 0.000000e+00
2.366906e+00 0.000000e+00 0.000000e+00
2.392086e+00 0.000000e+00 0.000000e+00
2.417266e+00 0.000000e+00 0.000000e+00
2.442446e+00 0.000000e+00 0.000000e+00
2.467626e+00 0.000000e+00 0.000000e+00
2.492806e+00 0.000000e+00 0.000000e+00
2.517986e+00 0.000000e+00 0.000000e+00
2.543165e+00 0.000000e+00 0.000000e+00
2.568345e+00 0.000000e+00 0.000000e+00
2.593525e+00 0.000000e+00 0.000000e+00
2.618705e+00 0.000000e+00 0.000000e+00
2.643885e+00 0.000000e+00 0.000000e+00
2.669065e+00 0.000000e+00 0.000000e+00
2.694245e+00 0.000000e+00 0.000000e+00
2.719424e+00 0.000000e+00 0.000000e+00
2.744604e+00 0.000000e+00 0.000000e+00
2.769784e+00 0.000000e+00 0.000000e+00
2.794964e+00 0.000000e+00 0.000000e+00
2.820144e+00 0.000000e+00 0.000000e+00
2.845324e+00 0.000000e+00 0.000000e+00
2.870504e+00 0.000000e+00 0.000000e+00
2.895683e+00 0.000000e+00 0.000000e+00
2.920863e+00 0.000000e+00 0.000000e+00
2.946043e+00 0.000000e+00 0.000000e+00
2.971223e+00 0.000000e+00 0.000000e+00
2.996403e+00 0.000000e+00 0.000000e+00
3.021583e+00 0.000000e+00 0.000000e+00
3.046763e+00 0.000000e+00 0.000000e+00
3.071942e+00 0.000000e+00 0.000000e+00
3.097122e+00 0.000000e+00 0.000000e+00
3.122302e+00 0.000000e+00 0.000000e+00
3.147482e+00 0.000000e+00 0.000000e+00
3.172662e+00 0.000000e+00 0.000000e+00
3.197842e+00 0.000000e+00 0.000000e+00
3.223022e+00 0.000000e+00 0.000000e+00
3.248201e+00 0.000000e+00 0.000000e+00
3.273381e+00 0.000000e+00 0.000000e+00
3.298561e+00 0.000000e+00 0.000000e+00
3.323741e+00 0.000000e+00 0.000000e+00
3.348921e+00 0.000000e+00 0.000000e+00
3.374101e+00 0.000000e+00 0.000000e+00
3.399281e+00 0.000000e+00 0.000000e+00
3.424460e+00 0.000000e+00 0.000000e+00
3.449640e+00 0.000000e+00 0.000000e+00
3.474820e+00 0.000000e+00 0.000000e+00
3.500000e+00 0.000000e+00 0.000000e+00
0.000000e+00 1.694915e-02 0.000000e+00
2.517986e-02 1.694915e-02 0.000000e+00
5.035971e-02 1.694915e-02 0.000000e+00
7.553957e-02 1.694915e-02 0.000000e+00
1.007194e-01 1.694915e-02 0.000000e+00
1.258993e-01 1.694915e-02 0.000000e+00
1.510791e-01 1.694915e-02 0.000000e+00
1.762590e-01 1.694915e-02 0.000000e+00
2.014388e-01 1.694915e-02 0.000000e+00
2.266187e-01 1.694915e-02 0.000000e+00
2.517986e-01 1.694915e-02 0.000000e+00
2.769784e-01 1.694915e-02 0.000000e+00
3.021583e-01 1.694915e-02 0.000000e+00
3.273381e-01 1.694915e-02 0.000000e+00
3.525180e-01 1.694915e-02 0.000000e+00
3.776978e-01 1.694915e-02 0.000000e+00
4.028777e-01 1.694915e-02 0.000000e+00
4.280576e-01 1.694915e-02 0.000000e+00
4.532374e-01 1.694915e-02 0.000000e+00
4.784173e-01 1.694915e-02 0.000000e+00
5.035971e-01 1.694915e-02 0.000000e+00
5.287770e-01 1.694915e-02 0.000000e+00
5.539568e-01 1.694915e-02 0.000000e+00
5.791367e-01 1.694915e-02 0.000000e+00
6.043165e-01 1.694915e-02 0.000000e+00
6.294964e-01 1.694915e-02 0.000000e+00
6.546763e-01 1.694915e-02 0.000000e+00
6.798561e-01 1.694915e-02 0.000000e+00
7.050360e-01 1.694915e-02 0.000000e+00
7.302158e-01 1.694915e-02 0.000000e+00
7.553957e-01 1.694915e-02 0.000000e+00
7.805755e-01 1.694915e-02 0.000000e+00
8.057554e-01 1.694915e-02 0.000000e+00
8.309353e-01 1.694915e-02 0.000000e+00
8.561151e-01 1.694915e-02 0.000000e+00
8.812950e-01 1.694915e-02 0.000000e+00
9.064748e-01 1.694915e-02 0.000000e+00
9.316547e-01 1.694915e-02 0.000000e+00
9.568345e-01 1.694915e-02 0.000000e+00
9.820144e-01 1.694915e-02 0.000000e+00
1.007194e+00 1.694915e-02 0.000000e+00
1.032374e+00 1.694915e-02 0.000000e+00
1.057554e+00 1.694915e-02 0.000000e+00
1.082734e+00 1.694915e-02 0.000000e+00
1.107914e+00 1.694915e-02 0.000000e+00
1.133094e+00 1.694915e-02 0.000000e+00
1.158273e+00 1.694915e-02 0.000000e+00
1.183453e+00 1.694915e-02 0.000000e+00
1.208633e+00 1.694915e-02 0.000000e+00
1.233813e+00 1.694915e-02 0.000000e+00
1.258993e+00 1.694915e-02 0.000000e+00
1.284173e+00 1.694915e-02 0.000000e+00
1.309353e+00 1.694915e-02 0.000000e+00
1.334532e+00 1.694915e-02 0.000000e+00
1.359712e+00 1.694915e-02 0.000000e+00
1.384892e+00 1.694915e-02 0.000000e+00
1.410072e+00 1.694915e-02 0.000000e+00
1.435252e+00 1.694915e-02 0.000000e+00
1.460432e+00 1.694915e-02 0.000000e+00
1.485612e+00 1.694915e-02 0.000000e+00
1.510791e+00 1.694915e-02 0.000000e+00
1.535971e+00 1.694915e-02 0.000000e+00
1.561151e+00 1.694915e-02 0.000000e+00
1.586331e+00 1.694915e-02 0.000000e+00
1.611511e+00 1.694915e-02 0.000000e+00
1.636691e+00 1.694915e-02 0.000000e+00
1.661871e+00 1.694915e-02 0.000000e+00
1.687050e+00 1.694915e-02 0.000000e+00
1.712230e+00 1.694915e-02 0.000000e+00
1.737410e+00 1.694915e-02 0.000000e+00
1.762590e+00 1.694915e-02 0.000000e+00
1.787770e+00 1.694915e-02 0.000000e+00
1.812950e+00 1.694915e-02 0.000000e+00
1.838129e+00 1.694915e-02 0.000000e+00
1.863309e+00 1.694915e-02 0.000000e+00
1.888489e+00 1.694915e-02 0.000000e+00
1.913669e+00 1.694915e-02 0.000000e+00
1.938849e+00 1.694915e-02 0.000000e+00
1.964029e+00 1.694915e-02 0.000000e+00
1.989209e+00 1.694915e-02 0.000000e+00
2.014388e+00 1.694915e-02 0.000000e+00
2.039568e+00 1.694915e-02 0.000000e+00
2.064748e+00 1.694915e-02 0.000000e+00
2.089928e+00 1.694915e-02 0.000000e+00
2.115108e+00 1.694915e-02 0.000000e+00
2.140288e+00 1.694915e-02 0.000000e+00
2.165468e+00 1.694915e-02 0.000000e+00
2.190647e+00 1.694915e-02 0.000000e+00
2.215827e+00 1.694915e-02 0.000000e+00
2.241007e+00 1.694915e-02 0.000000e+00
2.266187e+00 1.694915e-02 0.000000e+00
2.291367e+00 1.694915e-02 0.000000e+00
2.316547e+00 1.694915e-02 0.000000e+00
2.341727e+00 1.694915e-02 0.000000e+00
2.366906e+00 1.694915e-02 0.000000e+00
2.392086e+00 1.694915e-02 0.000000e+00
2.417266e+00 1.694915e-02 0.000000e+00
2.442446e+00 1.694915e-02 0.000000e+00
2.467626e+00 1.694915e-02 0.000000e+00
2.492806e+00 1.694915e-02 0.000000e+00
2.517986e+00 1.694915e-02 0.000000e+00
2.543165e+00 1.694915e-02 0.000000e+00
2.568345e+00 1.694915e-02 0.000000e+00
2.593525e+00 1.694915e-02 0.000000e+00
2.618705e+00 1.694915e-02 0.000000e+00
2.643885e+00 1.694915e-02 0.000000e+00
2.669065e+00 1.694915e-02 0.000000e+00
2.694245e+00 1.694915e-02 0.000000e+00
2.719424e+00 1.694915e-02 0.000000e+00
2.744604e+00 1.694915e-02 0.000000e+00
2.769784e+00 1.694915e-02 0.000000e+00
2.794964e+00 1.694915e-02 0.000000e+00
2.820144e+00 1.694915e-02 0.000000e+00
[...]
POINT_DATA 8400
SCALARS RES_Cont double
LOOKUP_TABLE default
0.000000e+00
0.000000e+00
0.000000e+00
0.000000e+00
0.000000e+00
0.000000e+00
0.000000e+00
0.000000e+00
0.000000e+00
0.000000e+00
0.000000e+00
0.000000e+00
0.000000e+00
0.000000e+00
0.000000e+00
0.000000e+00
0.000000e+00
0.000000e+00
0.000000e+00
0.000000e+00
0.000000e+00
0.000000e+00
0.000000e+00
0.000000e+00
0.000000e+00
0.000000e+00
0.000000e+00
0.000000e+00
0.000000e+00
0.000000e+00
0.000000e+00
0.000000e+00
0.000000e+00
0.000000e+00
0.000000e+00
0.000000e+00
0.000000e+00
0.000000e+00
0.000000e+00
0.000000e+00
0.000000e+00
0.000000e+00
0.000000e+00
0.000000e+00
0.000000e+00
0.000000e+00
0.000000e+00
0.000000e+00
0.000000e+00
0.000000e+00
0.000000e+00
0.000000e+00
0.000000e+00
0.000000e+00
0.000000e+00
0.000000e+00
0.000000e+00
0.000000e+00
0.000000e+00
0.000000e+00
0.000000e+00
0.000000e+00
0.000000e+00
0.000000e+00
0.000000e+00
0.000000e+00
0.000000e+00
0.000000e+00
0.000000e+00
0.000000e+00
0.000000e+00
0.000000e+00
0.000000e+00
0.000000e+00
0.000000e+00
0.000000e+00
0.000000e+00
0.000000e+00
0.000000e+00
0.000000e+00
0.000000e+00
0.000000e+00
0.000000e+00
0.000000e+00
0.000000e+00
0.000000e+00
0.000000e+00
0.000000e+00
0.000000e+00
0.000000e+00
0.000000e+00
0.000000e+00
0.000000e+00
0.000000e+00
0.000000e+00
0.000000e+00
0.000000e+00
0.000000e+00
0.000000e+00
0.000000e+00
0.000000e+00
0.000000e+00
0.000000e+00
0.000000e+00
0.000000e+00
0.000000e+00
0.000000e+00
0.000000e+00
0.000000e+00
0.000000e+00
0.000000e+00
0.000000e+00
0.000000e+00
0.000000e+00
0.000000e+00
0.000000e+00
0.000000e+00
0.000000e+00
0.000000e+00
0.000000e+00
0.000000e+00
0.000000e+00
0.000000e+00
0.000000e+00
0.000000e+00
0.000000e+00
0.000000e+00
0.000000e+00
0.000000e+00
0.000000e+00
0.000000e+00
0.000000e+00
0.000000e+00
0.000000e+00
0.000000e+00
0.000000e+00
0.000000e+00
0.000000e+00
0.000000e+00
0.000000e+00
0.000000e+00
-0.000000e+00
-0.000000e+00
-0.000000e+00
-0.000000e+00
-0.000000e+00
-0.000000e+00
3.951571e-19
-2.766100e-18
2.082467e-18
2.280046e-18
-4.179766e-18
-8.663792e-19
2.416391e-18
2.578590e-19
1.793992e-18
-1.484016e-18
-2.249020e-18
-5.253776e-19
1.909380e-18
-1.665693e-18
4.132212e-18
-7.431019e-19
1.456216e-18
-3.120889e-18
3.624877e-19
4.338613e-18
-2.664903e-18
-6.307513e-19
1.550128e-18
1.664343e-18
-2.373046e-18
-1.608582e-18
3.249507e-18
3.163506e-18
6.850600e-20
3.520668e-20
2.530652e-18
4.542930e-18
1.361674e-19
4.364301e-18
1.419136e-18
-2.115780e-18
2.645576e-18
5.840219e-19
1.638117e-18
1.475540e-18
-3.866946e-18
-1.752958e-18
9.729915e-19
-2.823182e-18
-2.197748e-18
-7.670850e-19
1.670433e-18
-4.614478e-18
1.032062e-18
-2.308960e-18
-4.865557e-18
-2.292893e-18
-3.714350e-18
-2.665686e-18
2.559109e-18
2.961970e-18
-7.469860e-18
2.184247e-18
2.178762e-17
1.986447e-17
4.365413e-18
-9.581331e-19
-1.288818e-18
-9.176870e-18
-1.332801e-18
-5.616012e-18
-1.017593e-17
1.623224e-17
9.861873e-18
2.294549e-18
4.914525e-17
1.258225e-16
3.585859e-16
1.193808e-15
3.863586e-15
1.200394e-14
3.623992e-14
1.059592e-13
3.006818e-13
8.280751e-13
2.213811e-12
5.747951e-12
1.449833e-11
3.554085e-11
8.470298e-11
1.963261e-10
4.426944e-10
9.714107e-10
2.074850e-09
4.314720e-09
8.737364e-09
1.723186e-08
3.310176e-08
6.193831e-08
1.128908e-07
2.004137e-07
3.465158e-07
5.834185e-07
9.563421e-07
1.525874e-06
2.369079e-06
3.578255e-06
5.256189e-06
7.507001e-06
1.042242e-05
1.406451e-05
1.844712e-05
2.351982e-05
2.915814e-05
3.516350e-05
4.127445e-05
4.718792e-05
5.258720e-05
5.717185e-05
6.068459e-05
6.293188e-05
6.379669e-05
6.324422e-05
6.132243e-05
5.815961e-05
5.396052e-05
4.900102e-05
4.361960e-05
3.820256e-05
3.315953e-05
2.888703e-05
2.572145e-05
2.388716e-05
2.345067e-05
2.429392e-05
2.611831e-05
2.848428e-05
0.000000e+00
0.000000e+00
-0.000000e+00
-0.000000e+00
-0.000000e+00
-0.000000e+00
-0.000000e+00
3.951571e-19
-5.927357e-19
1.778207e-18
7.903142e-19
-3.769777e-18
-1.094574e-18
5.684329e-18
1.580628e-18
-2.141795e-18
-1.059195e-18
-1.647168e-18
3.473138e-18
-1.936871e-18
-2.948863e-18
1.142524e-19
-1.188830e-18
-6.450608e-19
-1.506236e-18
1.050624e-18
-3.108179e-19
-1.920235e-18
-4.955105e-19
-4.141488e-19
1.157509e-18
-3.355834e-18
-1.155415e-18
2.455278e-19
2.112283e-18
1.830115e-18
1.400238e-18
-2.107697e-18
-2.740523e-18
-3.314508e-18
1.289925e-18
4.323399e-18
3.989923e-18
8.413603e-19
2.553488e-18
1.894312e-18
-2.300565e-18
2.749904e-18
-1.348933e-18
-7.692198e-19
-1.143401e-18
1.521607e-18
1.782399e-18
-4.867918e-18
1.393761e-18
6.574942e-18
-4.981251e-19
1.392705e-17
1.393933e-17
6.168201e-18
2.083045e-18
-5.928694e-18
-4.630018e-18
2.034110e-17
2.255963e-17
9.688560e-18
3.526571e-18
1.050875e-17
-5.339688e-18
1.291641e-18
8.734425e-18
5.533686e-18
3.572431e-18
-3.308034e-17
-3.025130e-17
6.487633e-18
2.871732e-17
2.721167e-17
4.176270e-17
1.129147e-16
3.355638e-16
1.162661e-15
3.721794e-15
1.158968e-14
3.514956e-14
1.031480e-13
2.934166e-13
8.097239e-13
2.168726e-12
5.639748e-12
1.424532e-11
3.496412e-11
8.342195e-11
1.935539e-10
4.368496e-10
9.594039e-10
2.050816e-09
4.267836e-09
8.648232e-09
1.706672e-08
3.280359e-08
6.141369e-08
1.119914e-07
1.989121e-07
3.440746e-07
5.795566e-07
9.504013e-07
1.516996e-06
2.356202e-06
3.560151e-06
5.231541e-06
7.474542e-06
1.038111e-05
1.401370e-05
1.838676e-05
2.345049e-05
2.908106e-05
3.508043e-05
4.118750e-05
4.709938e-05
5.249950e-05
5.708756e-05
6.060652e-05
6.286319e-05
6.374096e-05
6.320534e-05
6.130432e-05
5.816578e-05
5.399348e-05
4.906176e-05
4.370708e-05
3.831347e-05
3.328830e-05
2.902621e-05
2.586238e-05
2.402097e-05
2.356934e-05
2.439134e-05
2.619112e-05
2.853223e-05
0.000000e+00
0.000000e+00
-0.000000e+00
-0.000000e+00
-0.000000e+00
-0.000000e+00
3.951571e-19
-7.903142e-19
3.860674e-18
3.465517e-18
-2.281951e-19
-2.447008e-18
2.203981e-18
1.808823e-18
-3.433948e-18
-2.306852e-18
-5.389186e-18
-2.049945e-18
1.842022e-18
-2.899879e-19
-2.390579e-18
2.077771e-18
1.190351e-18
3.096671e-18
2.665746e-18
3.300521e-18
-3.529972e-19
-3.812001e-18
-5.929693e-18
4.328461e-18
2.861876e-18
2.774320e-18
4.709713e-18
5.189744e-18
2.826901e-18
-2.413419e-18
-2.159605e-18
-1.725832e-18
6.230882e-18
3.837747e-18
1.365652e-18
-1.554788e-18
2.418748e-19
-1.821430e-18
9.550457e-19
9.083849e-19
5.649508e-19
5.183946e-18
-6.369224e-18
-3.482425e-18
-3.039345e-18
-2.895671e-18
-2.351183e-18
4.983454e-18
1.767320e-18
1.410645e-18
-1.865182e-18
-3.243096e-18
3.722075e-18
9.096157e-18
-4.019739e-20
3.584946e-18
3.919799e-18
5.169760e-18
1.246554e-17
8.650251e-18
-3.899708e-18
-4.491170e-18
-3.456201e-18
1.139948e-17
1.087504e-17
8.824986e-18
7.232799e-18
-9.788275e-18
-3.792773e-17
-1.756703e-17
1.604914e-17
1.409789e-17
3.419060e-17
9.909776e-17
3.055191e-16
1.066349e-15
3.465267e-15
1.090923e-14
3.329991e-14
9.829112e-14
2.809218e-13
7.783248e-13
2.091670e-12
5.455254e-12
1.381466e-11
3.398412e-11
8.124859e-11
1.888576e-10
4.269625e-10
9.391238e-10
2.010285e-09
4.188905e-09
8.498448e-09
1.678974e-08
3.230450e-08
6.053749e-08
1.104930e-07
1.964164e-07
3.400284e-07
5.731748e-07
9.406160e-07
1.502423e-06
2.335144e-06
3.530657e-06
5.191548e-06
7.422083e-06
1.031460e-05
1.393223e-05
1.829031e-05
2.334010e-05
2.895875e-05
3.494905e-05
4.105046e-05
4.696048e-05
5.236276e-05
5.695726e-05
6.048733e-05
6.276030e-05
6.366005e-05
6.315240e-05
6.128512e-05
5.818521e-05
5.405472e-05
4.916546e-05
4.385077e-05
3.849120e-05
3.349080e-05
2.924152e-05
2.607701e-05
2.422137e-05
2.374361e-05
2.453082e-05
2.629154e-05
2.859424e-05
0.000000e+00
0.000000e+00
-0.000000e+00
-0.000000e+00
-0.000000e+00
-0.000000e+00
-1.185471e-18
-1.778207e-18
6.994172e-19
-7.903142e-19
-1.702142e-18
-2.492456e-18
-4.099891e-19
-2.567569e-18
-1.867199e-18
3.089002e-18
3.250249e-18
9.608108e-19
5.714947e-19
1.571069e-18
4.102155e-18
-1.427212e-19
-2.586798e-18
-1.789318e-18
2.385772e-19
-1.857188e-18
6.896002e-19
-7.727373e-19
-3.231563e-18
3.073232e-18
4.635243e-18
-3.184482e-19
1.205540e-18
2.954859e-18
4.568592e-19
-3.827433e-18
-2.101202e-18
2.793338e-18
-4.860191e-19
1.684053e-18
4.768983e-19
4.423721e-19
-5.381774e-18
2.239175e-19
1.167497e-18
-2.382190e-18
-3.077115e-18
-4.370622e-18
3.749649e-18
5.978126e-18
-2.970812e-18
1.421469e-18
2.482935e-18
9.711440e-20
-6.358332e-18
-4.334764e-18
-7.335206e-18
-1.504254e-17
-1.768385e-17
-1.875968e-18
5.427840e-18
2.493818e-17
3.588689e-18
-1.615106e-17
-1.633189e-17
-7.198731e-19
-7.280184e-18
-2.079629e-17
-2.111079e-17
-3.002975e-17
2.734955e-17
6.132481e-18
-2.405986e-18
-1.620060e-17
5.718352e-18
-6.830445e-18
9.262572e-18
6.040969e-18
3.887932e-17
7.798121e-17
2.793593e-16
9.382084e-16
3.123846e-15
9.957283e-15
3.066977e-14
9.142362e-14
2.631828e-13
7.336597e-13
1.982107e-12
5.193217e-12
1.320339e-11
3.259370e-11
7.816551e-11
1.821951e-10
4.129333e-10
9.103411e-10
1.952751e-09
4.076854e-09
8.285823e-09
1.639662e-08
3.159634e-08
5.929476e-08
1.083689e-07
1.928813e-07
3.343026e-07
5.641536e-07
9.268010e-07
1.481877e-06
2.305497e-06
3.489196e-06
5.135401e-06
7.348526e-06
1.022143e-05
1.381818e-05
1.815539e-05
2.318574e-05
2.878784e-05
3.476570e-05
4.085970e-05
4.676792e-05
5.217441e-05
5.677951e-05
6.032697e-05
6.262458e-05
6.355663e-05
6.308897e-05
6.126884e-05
5.822179e-05
5.414747e-05
4.931433e-05
4.405159e-05
3.873534e-05
3.376538e-05
2.953026e-05
2.636170e-05
2.448392e-05
2.396830e-05
2.470644e-05
2.641294e-05
2.866298e-05
0.000000e+00
0.000000e+00
-0.000000e+00
-0.000000e+00
-0.000000e+00
-0.000000e+00
-5.927357e-19
9.878928e-19
-5.152827e-18
-4.255831e-18
-1.732758e-18
-1.580628e-18
-6.381842e-19
-2.567569e-18
-3.626354e-19
3.826247e-18
-1.634516e-18
5.327126e-18
-2.904785e-18
-9.230163e-19
1.485018e-18
2.672051e-18
2.063970e-19
-8.126944e-19
-1.248504e-18
3.185353e-19
1.535274e-19
3.910869e-18
8.446847e-19
3.855906e-18
3.767040e-18
3.051649e-18
-1.739223e-18
-1.476622e-18
3.879708e-18
-2.767742e-18
-5.796267e-18
-2.833616e-18
-2.827738e-18
-9.270144e-19
-1.511359e-18
-1.881123e-18
2.208892e-18
1.665093e-18
4.898960e-18
3.538815e-18
4.618969e-18
2.016066e-17
8.600973e-18
-1.463912e-17
-2.130634e-18
4.160055e-18
6.401990e-18
3.276677e-18
1.264761e-17
-5.746592e-18
-4.651496e-18
4.957034e-19
-1.776888e-17
4.556731e-18
6.136811e-18
8.835610e-18
8.553469e-19
-1.285830e-17
-2.026905e-18
-8.580632e-19
-7.388598e-18
-2.690547e-17
-2.317370e-17
-2.138043e-17
4.789786e-18
9.152138e-18
1.235632e-17
1.100332e-17
1.191549e-17
-2.705104e-18
-1.917957e-17
1.467363e-17
8.320450e-18
7.405858e-17
2.315554e-16
8.157698e-16
2.713953e-15
8.786271e-15
2.747397e-14
8.274950e-14
2.405244e-13
6.764508e-13
1.841518e-12
4.856661e-12
1.241821e-11
3.080761e-11
7.420386e-11
1.736283e-10
3.948775e-10
8.732575e-10
1.878543e-09
3.932180e-09
8.011038e-09
1.588818e-08
3.067987e-08
5.768574e-08
1.056179e-07
1.883026e-07
3.268868e-07
5.524728e-07
9.089200e-07
1.455296e-06
2.267161e-06
3.435601e-06
5.062837e-06
7.253455e-06
1.010097e-05
1.367063e-05
1.798068e-05
2.298572e-05
2.856629e-05
3.452814e-05
4.061300e-05
4.651990e-05
5.193348e-05
5.655445e-05
6.012687e-05
6.245873e-05
6.343430e-05
6.301903e-05
6.125905e-05
5.827796e-05
5.427239e-05
4.950676e-05
4.430550e-05
3.903954e-05
3.410374e-05
2.988267e-05
2.670584e-05
2.479769e-05
2.423255e-05
2.490765e-05
2.654517e-05
2.872876e-05
0.000000e+00
0.000000e+00
-0.000000e+00
-0.000000e+00
-0.000000e+00
1.975786e-19
2.766100e-18
-5.152827e-18
-2.872781e-18
1.930337e-18
-4.741885e-18
-3.860674e-18
-5.030361e-18
9.424443e-19
1.362502e-18
9.851687e-19
1.162058e-18
-5.777967e-18
-1.634434e-20
-1.385565e-18
-2.020985e-18
-3.930343e-18
-3.967699e-18
-5.166526e-19
-4.158973e-18
1.346780e-18
3.157404e-18
-7.337286e-19
4.692545e-19
-4.188508e-19
8.782061e-19
-2.400677e-19
8.832385e-19
-2.277676e-19
-2.974289e-18
-1.365804e-18
-5.721394e-18
1.651008e-18
1.137032e-18
4.618798e-19
-1.769593e-19
1.650756e-18
3.944125e-18
3.459021e-18
1.487214e-18
1.698750e-18
-1.140368e-18
3.146828e-18
2.781609e-19
4.611245e-18
3.160848e-18
9.502056e-18
1.153945e-17
-2.528172e-19
-3.260708e-18
-9.852453e-18
-7.368899e-19
1.902934e-18
9.187104e-18
1.417451e-17
-1.927196e-18
-1.293150e-17
-1.664144e-17
-1.622409e-17
3.439984e-18
1.090134e-17
-7.518351e-18
1.227249e-18
-2.407572e-17
-2.436476e-18
-9.373274e-18
-4.164883e-18
2.043415e-17
3.878946e-17
2.121668e-17
6.273735e-18
8.496266e-18
3.932135e-18
1.352117e-17
2.181103e-17
1.806359e-16
6.651427e-16
2.305155e-15
7.605060e-15
2.397297e-14
7.291830e-14
2.142605e-13
6.089251e-13
1.673755e-12
4.452716e-12
1.147328e-11
2.865587e-11
6.942821e-11
1.632936e-10
3.730717e-10
8.284079e-10
1.788647e-09
3.756621e-09
7.677042e-09
1.526924e-08
2.956275e-08
5.572224e-08
1.022578e-07
1.827060e-07
3.178179e-07
5.381831e-07
8.870406e-07
1.422767e-06
2.220236e-06
3.369979e-06
4.973945e-06
7.136901e-06
9.953138e-06
1.348931e-05
1.776568e-05
2.273925e-05
2.829308e-05
3.423526e-05
4.030943e-05
4.621596e-05
5.164032e-05
5.628353e-05
5.988966e-05
6.226637e-05
6.329730e-05
6.294677e-05
6.125916e-05
5.835548e-05
5.442884e-05
4.973926e-05
4.460598e-05
3.939440e-05
3.449404e-05
3.028519e-05
2.709493e-05
2.514797e-05
2.452210e-05
2.512107e-05
2.667601e-05
2.878056e-05
0.000000e+00
0.000000e+00
-0.000000e+00
-0.000000e+00
-0.000000e+00
-5.927357e-19
8.969958e-19
-3.556414e-18
2.051851e-18
3.723376e-18
1.139070e-18
1.276368e-18
1.276368e-18
2.518310e-18
-1.106415e-18
1.675737e-18
-5.488397e-18
-9.326510e-19
-2.532925e-18
-1.880961e-19
-4.688545e-18
-3.854506e-18
-4.145058e-18
1.647755e-18
3.128144e-18
-2.789265e-18
-4.161122e-18
-3.406079e-18
-4.006973e-18
-4.530236e-18
-1.581703e-18
-5.917167e-18
8.608276e-20
-6.779225e-19
4.279492e-18
1.038692e-18
3.858643e-18
3.901010e-18
-4.241397e-19
2.746638e-18
-8.750016e-20
2.508372e-18
-2.047337e-18
-5.106367e-18
-5.322113e-18
-2.875882e-18
-3.838569e-19
-4.945261e-18
-9.146458e-19
6.145030e-18
-2.275457e-18
-9.562008e-18
4.023298e-18
-1.129497e-17
6.885541e-18
4.220571e-18
6.298686e-19
-1.189402e-18
-5.036654e-18
-8.562467e-19
3.204740e-19
-2.319720e-18
-2.051074e-17
-6.466638e-18
1.006212e-17
1.263506e-17
9.606197e-18
1.089994e-17
-2.912031e-18
-1.311844e-17
9.612702e-18
-2.946454e-18
5.062951e-18
3.260647e-17
1.802428e-17
-4.288186e-18
2.518103e-17
1.247753e-17
-4.365958e-18
-9.228439e-18
5.583485e-17
3.922554e-16
1.728602e-15
6.274886e-15
2.044383e-14
6.303545e-14
1.869070e-13
5.358334e-13
1.487134e-12
3.995347e-12
1.039224e-11
2.618097e-11
6.392248e-11
1.513663e-10
3.478829e-10
7.765373e-10
1.684508e-09
3.552849e-09
7.288560e-09
1.454784e-08
2.825818e-08
5.342530e-08
9.832124e-08
1.761410e-07
3.071684e-07
5.213883e-07
8.613056e-07
1.384477e-06
2.164960e-06
3.292612e-06
4.869032e-06
6.999164e-06
9.778167e-06
1.327435e-05
1.751036e-05
2.244614e-05
2.796792e-05
3.388682e-05
3.994901e-05
4.585668e-05
5.129628e-05
5.596909e-05
5.961866e-05
6.205166e-05
6.315020e-05
6.287657e-05
6.127260e-05
5.845609e-05
5.461626e-05
5.000847e-05
4.494671e-05
3.979078e-05
3.492482e-05
3.072468e-05
2.751497e-05
2.552073e-05
2.482358e-05
2.533456e-05
2.679488e-05
2.880955e-05
0.000000e+00
0.000000e+00
-0.000000e+00
-0.000000e+00
-0.000000e+00
-1.778207e-18
3.951571e-18
3.161257e-18
-1.975786e-19
-4.255831e-18
-2.477624e-18
8.051462e-19
2.032256e-18
1.347261e-18
-4.712906e-18
1.262481e-18
-8.139869e-19
-2.797176e-18
1.731729e-18
-1.517235e-18
-3.029095e-18
-1.894020e-18
2.821182e-18
4.581319e-18
-4.983688e-18
-8.792442e-19
-4.505859e-18
5.742524e-18
-2.973226e-18
-4.638606e-18
-1.307234e-18
2.078206e-18
-4.346365e-18
1.314360e-18
6.883576e-19
3.219873e-18
-2.322954e-18
1.674550e-18
-6.245556e-19
6.764420e-19
6.428623e-19
-4.849329e-18
2.210722e-21
-2.403593e-18
7.408167e-19
-2.107447e-18
7.975422e-19
3.694579e-18
6.183519e-18
1.063213e-19
-8.738188e-18
-2.887087e-18
-6.044384e-18
-2.043631e-17
-6.163677e-18
1.675904e-17
2.057736e-17
-1.213387e-17
-1.048518e-17
-1.580322e-17
7.265314e-19
-4.064251e-18
-1.729396e-17
-8.338722e-18
-4.220828e-18
7.379244e-18
-1.178390e-17
5.711053e-18
3.607457e-18
-1.019783e-18
-3.029902e-18
1.708861e-18
2.303599e-19
2.435478e-17
1.778398e-17
-6.651276e-19
1.369783e-17
1.387760e-17
4.816556e-18
9.014328e-18
4.127621e-18
9.850459e-17
7.123866e-16
3.918535e-15
1.595601e-14
5.321012e-14
1.612404e-13
4.653554e-13
1.298551e-12
3.514064e-12
9.221885e-12
2.345432e-11
5.779881e-11
1.380415e-10
3.196923e-10
7.184306e-10
1.567725e-09
3.323986e-09
6.851374e-09
1.373417e-08
2.678336e-08
5.082285e-08
9.385206e-08
1.686744e-07
2.950372e-07
5.022294e-07
8.319097e-07
1.340685e-06
2.101659e-06
3.203887e-06
4.748532e-06
6.840690e-06
9.576481e-06
1.302610e-05
1.721498e-05
2.210657e-05
2.759098e-05
3.348310e-05
3.953233e-05
4.544316e-05
5.090323e-05
5.561380e-05
5.931740e-05
6.181877e-05
6.299745e-05
6.281271e-05
6.130292e-05
5.858206e-05
5.483512e-05
5.031277e-05
4.532385e-05
4.022277e-05
3.538845e-05
3.119243e-05
2.795687e-05
2.590728e-05
2.512936e-05
2.554208e-05
2.689764e-05
2.881365e-05
0.000000e+00
0.000000e+00
-0.000000e+00
3.951571e-19
1.975786e-19
-1.489731e-18
2.173364e-18
-3.739160e-18
-1.565796e-18
-2.127916e-18
-7.903142e-19
-6.410419e-19
3.329715e-18
2.299365e-18
-5.441620e-19
-2.741734e-18
-3.737038e-18
8.663946e-19
-5.228320e-19
4.711190e-18
5.310376e-18
4.684933e-18
2.252990e-18
1.785330e-18
-8.324814e-19
3.101851e-18
1.948836e-18
-2.747363e-18
4.016612e-18
4.023799e-19
2.615466e-19
4.887267e-18
4.579358e-18
2.595183e-18
2.630009e-19
-3.135115e-18
-3.020207e-18
1.786565e-19
-1.245670e-18
-1.366200e-19
5.909167e-19
1.387392e-19
-1.326487e-18
3.720830e-18
6.868832e-18
-7.676646e-19
-1.883705e-21
-5.385650e-18
-2.580158e-18
-1.031030e-17
-9.018943e-18
6.319093e-18
-6.691800e-18
-2.139973e-17
-4.322189e-18
4.556035e-19
2.163780e-17
3.080137e-17
1.280823e-17
-2.479829e-17
-2.420972e-17
-9.541148e-18
-4.402169e-18
-1.780551e-18
-1.320292e-17
-3.739090e-18
-9.376464e-18
-7.129491e-18
-8.939438e-19
2.450354e-18
-1.588022e-19
2.931856e-18
1.137931e-18
1.674730e-17
1.040331e-17
4.321985e-17
1.795652e-17
2.014739e-17
-5.651042e-18
7.565017e-18
1.215836e-17
3.410959e-17
9.822518e-17
9.261570e-16
7.282250e-15
3.670908e-14
1.321099e-13
4.011342e-13
1.130397e-12
3.063060e-12
8.061983e-12
2.063253e-11
5.127940e-11
1.236221e-10
2.889381e-10
6.548295e-10
1.439747e-09
3.072986e-09
6.371345e-09
1.283920e-08
2.515763e-08
4.794725e-08
8.890196e-08
1.603854e-07
2.815411e-07
4.808732e-07
7.990812e-07
1.291690e-06
2.030707e-06
3.104251e-06
4.612941e-06
6.662001e-06
9.348587e-06
1.274502e-05
1.687994e-05
2.172093e-05
2.716269e-05
3.302470e-05
3.906030e-05
4.497679e-05
5.046311e-05
5.522027e-05
5.898908e-05
6.157140e-05
6.284308e-05
6.275923e-05
6.135386e-05
5.873653e-05
5.508770e-05
5.065337e-05
4.573753e-05
4.068954e-05
3.588345e-05
3.168674e-05
2.841928e-05
2.630716e-05
2.544043e-05
2.574644e-05
2.698913e-05
2.879972e-05
0.000000e+00
0.000000e+00
-0.000000e+00
-1.185471e-18
-5.927357e-19
1.778207e-18
-2.884755e-19
1.185471e-18
-1.109406e-18
-4.179766e-18
-1.688672e-19
2.331753e-18
4.762566e-18
-1.984768e-18
-3.106442e-19
1.082809e-18
4.645648e-18
-2.623957e-18
-5.200868e-18
-1.486190e-18
-6.453578e-19
4.385294e-18
2.114603e-18
1.837030e-18
3.836054e-18
-6.901351e-20
-2.828760e-18
4.140432e-18
5.937118e-18
2.230004e-18
3.441297e-18
-4.625457e-19
3.767099e-18
-1.519052e-18
-6.497759e-18
-2.618399e-18
-6.301804e-19
1.274828e-18
4.500284e-18
4.554888e-18
-5.614974e-19
5.694831e-18
-4.845927e-18
-5.326290e-18
-3.835680e-18
-1.396032e-18
4.252909e-19
-3.725380e-18
-1.622381e-18
6.949979e-18
7.002400e-18
1.461677e-17
-2.103894e-18
-7.890559e-18
-6.324209e-18
-2.570141e-18
1.175946e-17
2.315332e-17
3.200883e-18
-2.318408e-17
-1.783876e-17
7.946474e-18
-3.121006e-18
-7.472673e-18
-2.209748e-17
-1.592228e-17
1.037053e-17
2.220627e-18
4.642238e-19
7.880884e-18
1.570689e-18
-3.717587e-19
6.065388e-18
-2.703900e-18
-2.544412e-17
4.019891e-18
2.381287e-17
3.930681e-17
1.345984e-18
-2.376953e-17
2.538675e-17
5.759070e-17
6.473136e-17
3.829826e-17
5.774729e-16
9.950395e-15
7.133031e-14
3.036657e-13
9.644142e-13
2.684875e-12
7.066056e-12
1.803217e-11
4.487976e-11
1.088279e-10
2.565210e-10
5.868195e-10
1.302026e-09
2.802305e-09
5.853359e-09
1.187286e-08
2.340003e-08
4.483242e-08
8.352731e-08
1.513623e-07