# vtk DataFile Version 3.0
Resultado Projeto 3
ASCII
DATASET STRUCTURED_GRID
DIMENSIONS 70 30 1 
POINTS 2100 double
0.000000e+00 0.000000e+00 0.000000e+00
5.072464e-02 0.000000e+00 0.000000e+00
1.014493e-01 0.000000e+00 0.000000e+00
1.521739e-01 0.000000e+00 0.000000e+00
2.028986e-01 0.000000e+00 0.000000e+00
2.536232e-01 0.000000e+00 0.000000e+00
3.043478e-01 0.000000e+00 0.000000e+00
3.550725e-01 0.000000e+00 0.000000e+00
4.057971e-01 0.000000e+00 0.000000e+00
4.565217e-01 0.000000e+00 0.000000e+00
5.072464e-01 0.000000e+00 0.000000e+00
5.579710e-01 0.000000e+00 0.000000e+00
6.086957e-01 0.000000e+00 0.000000e+00
6.594203e-01 0.000000e+00 0.000000e+00
7.101449e-01 0.000000e+00 0.000000e+00
7.608696e-01 0.000000e+00 0.000000e+00
8.115942e-01 0.000000e+00 0.000000e+00
8.623188e-01 0.000000e+00 0.000000e+00
9.130435e-01 0.000000e+00 0.000000e+00
9.637681e-01 0.000000e+00 0.000000e+00
1.014493e+00 0.000000e+00 0.000000e+00
1.065217e+00 0.000000e+00 0.000000e+00
1.115942e+00 0.000000e+00 0.000000e+00
1.166667e+00 0.000000e+00 0.000000e+00
1.217391e+00 0.000000e+00 0.000000e+00
1.268116e+00 0.000000e+00 0.000000e+00
1.318841e+00 0.000000e+00 0.000000e+00
1.369565e+00 0.000000e+00 0.000000e+00
1.420290e+00 0.000000e+00 0.000000e+00
1.471014e+00 0.000000e+00 0.000000e+00
1.521739e+00 0.000000e+00 0.000000e+00
1.572464e+00 0.000000e+00 0.000000e+00
1.623188e+00 0.000000e+00 0.000000e+00
1.673913e+00 0.000000e+00 0.000000e+00
1.724638e+00 0.000000e+00 0.000000e+00
1.775362e+00 0.000000e+00 0.000000e+00
1.826087e+00 0.000000e+00 0.000000e+00
1.876812e+00 0.000000e+00 0.000000e+00
1.927536e+00 0.000000e+00 0.000000e+00
1.978261e+00 0.000000e+00 0.000000e+00
2.028986e+00 0.000000e+00 0.000000e+00
2.079710e+00 0.000000e+00 0.000000e+00
2.130435e+00 0.000000e+00 0.000000e+00
2.181159e+00 0.000000e+00 0.000000e+00
2.231884e+00 0.000000e+00 0.000000e+00
2.282609e+00 0.000000e+00 0.000000e+00
2.333333e+00 0.000000e+00 0.000000e+00
2.384058e+00 0.000000e+00 0.000000e+00
2.434783e+00 0.000000e+00 0.000000e+00
2.485507e+00 0.000000e+00 0.000000e+00
2.536232e+00 0.000000e+00 0.000000e+00
2.586957e+00 0.000000e+00 0.000000e+00
2.637681e+00 0.000000e+00 0.000000e+00
2.688406e+00 0.000000e+00 0.000000e+00
2.739130e+00 0.000000e+00 0.000000e+00
2.789855e+00 0.000000e+00 0.000000e+00
2.840580e+00 0.000000e+00 0.000000e+00
2.891304e+00 0.000000e+00 0.000000e+00
2.942029e+00 0.000000e+00 0.000000e+00
2.992754e+00 0.000000e+00 0.000000e+00
3.043478e+00 0.000000e+00 0.000000e+00
3.094203e+00 0.000000e+00 0.000000e+00
3.144928e+00 0.000000e+00 0.000000e+00
3.195652e+00 0.000000e+00 0.000000e+00
3.246377e+00 0.000000e+00 0.000000e+00
3.297101e+00 0.000000e+00 0.000000e+00
3.347826e+00 0.000000e+00 0.000000e+00
3.398551e+00 0.000000e+00 0.000000e+00
3.449275e+00 0.000000e+00 0.000000e+00
3.500000e+00 0.000000e+00 0.000000e+00
0.000000e+00 3.448276e-02 0.000000e+00
5.072464e-02 3.448276e-02 0.000000e+00
1.014493e-01 3.448276e-02 0.000000e+00
1.521739e-01 3.448276e-02 0.000000e+00
2.028986e-01 3.448276e-02 0.000000e+00
2.536232e-01 3.448276e-02 0.000000e+00
3.043478e-01 3.448276e-02 0.000000e+00
3.550725e-01 3.448276e-02 0.000000e+00
4.057971e-01 3.448276e-02 0.000000e+00
4.565217e-01 3.448276e-02 0.000000e+00
5.072464e-01 3.448276e-02 0.000000e+00
5.579710e-01 3.448276e-02 0.000000e+00
6.086957e-01 3.448276e-02 0.000000e+00
6.594203e-01 3.448276e-02 0.000000e+00
7.101449e-01 3.448276e-02 0.000000e+00
7.608696e-01 3.448276e-02 0.000000e+00
8.115942e-01 3.448276e-02 0.000000e+00
8.623188e-01 3.448276e-02 0.000000e+00
9.130435e-01 3.448276e-02 0.000000e+00
9.637681e-01 3.448276e-02 0.000000e+00
1.014493e+00 3.448276e-02 0.000000e+00
1.065217e+00 3.448276e-02 0.000000e+00
1.115942e+00 3.448276e-02 0.000000e+00
1.166667e+00 3.448276e-02 0.000000e+00
1.217391e+00 3.448276e-02 0.000000e+00
1.268116e+00 3.448276e-02 0.000000e+00
1.318841e+00 3.448276e-02 0.000000e+00
1.369565e+00 3.448276e-02 0.000000e+00
1.420290e+00 3.448276e-02 0.000000e+00
1.471014e+00 3.448276e-02 0.000000e+00
1.521739e+00 3.448276e-02 0.000000e+00
1.572464e+00 3.448276e-02 0.000000e+00
1.623188e+00 3.448276e-02 0.000000e+00
1.673913e+00 3.448276e-02 0.000000e+00
1.724638e+00 3.448276e-02 0.000000e+00
1.775362e+00 3.448276e-02 0.000000e+00
1.826087e+00 3.448276e-02 0.000000e+00
1.876812e+00 3.448276e-02 0.000000e+00
1.927536e+00 3.448276e-02 0.000000e+00
1.978261e+00 3.448276e-02 0.000000e+00
2.028986e+00 3.448276e-02 0.000000e+00
2.079710e+00 3.448276e-02 0.000000e+00
2.130435e+00 3.448276e-02 0.000000e+00
2.181159e+00 3.448276e-02 0.000000e+00
2.231884e+00 3.448276e-02 0.000000e+00
2.282609e+00 3.448276e-02 0.000000e+00
2.333333e+00 3.448276e-02 0.000000e+00
2.384058e+00 3.448276e-02 0.000000e+00
2.434783e+00 3.448276e-02 0.000000e+00
2.485507e+00 3.448276e-02 0.000000e+00
2.536232e+00 3.448276e-02 0.000000e+00
2.586957e+00 3.448276e-02 0.000000e+00
2.637681e+00 3.448276e-02 0.000000e+00
2.688406e+00 3.448276e-02 0.000000e+00
2.739130e+00 3.448276e-02 0.000000e+00
2.789855e+00 3.448276e-02 0.000000e+00
2.840580e+00 3.448276e-02 0.000000e+00
2.891304e+00 3.448276e-02 0.000000e+00
2.942029e+00 3.448276e-02 0.000000e+00
2.992754e+00 3.448276e-02 0.000000e+00
3.043478e+00 3.448276e-02 0.000000e+00
3.094203e+00 3.448276e-02 0.000000e+00
3.144928e+00 3.448276e-02 0.000000e+00
3.195652e+00 3.448276e-02 0.000000e+00
3.246377e+00 3.448276e-02 0.000000e+00
3.297101e+00 3.448276e-02 0.000000e+00
3.347826e+00 3.448276e-02 0.000000e+00
3.398551e+00 3.448276e-02 0.000000e+00
3.449275e+00 3.448276e-02 0.000000e+00
3.500000e+00 3.448276e-02 0.000000e+00
0.000000e+00 6.896552e-02 0.000000e+00
5.072464e-02 6.896552e-02 0.000000e+00
1.014493e-01 6.896552e-02 0.000000e+00
1.521739e-01 6.896552e-02 0.000000e+00
2.028986e-01 6.896552e-02 0.000000e+00
2.536232e-01 6.896552e-02 0.000000e+00
3.043478e-01 6.896552e-02 0.000000e+00
3.550725e-01 6.896552e-02 0.000000e+00
4.057971e-01 6.896552e-02 0.000000e+00
4.565217e-01 6.896552e-02 0.000000e+00
5.072464e-01 6.896552e-02 0.000000e+00
5.579710e-01 6.896552e-02 0.000000e+00
6.086957e-01 6.896552e-02 0.000000e+00
6.594203e-01 6.896552e-02 0.000000e+00
7.101449e-01 6.896552e-02 0.000000e+00
7.608696e-01 6.896552e-02 0.000000e+00
8.115942e-01 6.896552e-02 0.000000e+00
8.623188e-01 6.896552e-02 0.000000e+00
9.130435e-01 6.896552e-02 0.000000e+00
9.637681e-01 6.896552e-02 0.000000e+00
1.014493e+00 6.896552e-02 0.000000e+00
1.065217e+00 6.896552e-02 0.000000e+00
1.115942e+00 6.896552e-02 0.000000e+00
1.166667e+00 6.896552e-02 0.000000e+00
1.217391e+00 6.896552e-02 0.000000e+00
1.268116e+00 6.896552e-02 0.000000e+00
1.318841e+00 6.896552e-02 0.000000e+00
1.369565e+00 6.896552e-02 0.000000e+00
1.420290e+00 6.896552e-02 0.000000e+00
1.471014e+00 6.896552e-02 0.000000e+00
1.521739e+00 6.896552e-02 0.000000e+00
1.572464e+00 6.896552e-02 0.000000e+00
1.623188e+00 6.896552e-02 0.000000e+00
1.673913e+00 6.896552e-02 0.000000e+00
1.724638e+00 6.896552e-02 0.000000e+00
1.775362e+00 6.896552e-02 0.000000e+00
1.826087e+00 6.896552e-02 0.000000e+00
1.876812e+00 6.896552e-02 0.000000e+00
1.927536e+00 6.896552e-02 0.000000e+00
1.978261e+00 6.896552e-02 0.000000e+00
2.028986e+00 6.896552e-02 0.000000e+00
2.079710e+00 6.896552e-02 0.000000e+00
2.130435e+00 6.896552e-02 0.000000e+00
2.181159e+00 6.896552e-02 0.000000e+00
2.231884e+00 6.896552e-02 0.000000e+00
2.282609e+00 6.896552e-02 0.000000e+00
2.333333e+00 6.896552e-02 0.000000e+00
2.384058e+00 6.896552e-02 0.000000e+00
2.434783e+00 6.896552e-02 0.000000e+00
2.485507e+00 6.896552e-02 0.000000e+00
2.536232e+00 6.896552e-02 0.000000e+00
2.586957e+00 6.896552e-02 0.000000e+00
2.637681e+00 6.896552e-02 0.000000e+00
2.688406e+00 6.896552e-02 0.000000e+00
2.739130e+00 6.896552e-02 0.000000e+00
2.789855e+00 6.896552e-02 0.000000e+00
2.840580e+00 6.896552e-02 0.000000e+00
2.891304e+00 6.896552e-02 0.000000e+00
2.942029e+00 6.896552e-02 0.000000e+00
2.992754e+00 6.896552e-02 0.000000e+00
3.043478e+00 6.896552e-02 0.000000e+00
3.094203e+00 6.896552e-02 0.000000e+00
3.144928e+00 6.896552e-02 0.000000e+00
3.195652e+00 6.896552e-02 0.000000e+00
3.246377e+00 6.896552e-02 0.000000e+00
3.297101e+00 6.896552e-02 0.000000e+00
3.347826e+00 6.896552e-02 0.000000e+00
3.398551e+00 6.896552e-02 0.000000e+00
3.449275e+00 6.896552e-02 0.000000e+00
3.500000e+00 6.896552e-02 0.000000e+00
0.000000e+00 1.034483e-01 0.000000e+00
5.072464e-02 1.034483e-01 0.000000e+00
1.014493e-01 1.034483e-01 0.000000e+00
1.521739e-01 1.034483e-01 0.000000e+00
2.028986e-01 1.034483e-01 0.000000e+00
2.536232e-01 1.034483e-01 0.000000e+00
3.043478e-01 1.034483e-01 0.000000e+00
3.550725e-01 1.034483e-01 0.000000e+00
4.057971e-01 1.034483e-01 0.000000e+00
4.565217e-01 1.034483e-01 0.000000e+00
5.072464e-01 1.034483e-01 0.000000e+00
5.579710e-01 1.034483e-01 0.000000e+00
6.086957e-01 1.034483e-01 0.000000e+00
6.594203e-01 1.034483e-01 0.000000e+00
7.101449e-01 1.034483e-01 0.000000e+00
7.608696e-01 1.034483e-01 0.000000e+00
8.115942e-01 1.034483e-01 0.000000e+00
8.623188e-01 1.034483e-01 0.000000e+00
9.130435e-01 1.034483e-01 0.000000e+00
9.637681e-01 1.034483e-01 0.000000e+00
1.014493e+00 1.034483e-01 0.000000e+00
1.065217e+00 1.034483e-01 0.000000e+00
1.115942e+00 1.034483e-01 0.000000e+00
1.166667e+00 1.034483e-01 0.000000e+00
1.217391e+00 1.034483e-01 0.000000e+00
1.268116e+00 1.034483e-01 0.000000e+00
1.318841e+00 1.034483e-01 0.000000e+00
1.369565e+00 1.034483e-01 0.000000e+00
1.420290e+00 1.034483e-01 0.000000e+00
1.471014e+00 1.034483e-01 0.000000e+00
1.521739e+00 1.034483e-01 0.000000e+00
1.572464e+00 1.034483e-01 0.000000e+00
1.623188e+00 1.034483e-01 0.000000e+00
1.673913e+00 1.034483e-01 0.000000e+00
1.724638e+00 1.034483e-01 0.000000e+00
1.775362e+00 1.034483e-01 0.000000e+00
1.826087e+00 1.034483e-01 0.000000e+00
1.876812e+00 1.034483e-01 0.000000e+00
1.927536e+00 1.034483e-01 0.000000e+00
1.978261e+00 1.034483e-01 0.000000e+00
2.028986e+00 1.034483e-01 0.000000e+00
2.079710e+00 1.034483e-01 0.000000e+00
2.130435e+00 1.034483e-01 0.000000e+00
[...]
POINT_DATA 2100
SCALARS RES_Cont double
LOOKUP_TABLE default
0.000000e+00
0.000000e+00
0.000000e+00
0.000000e+00
0.000000e+00
0.000000e+00
0.000000e+00
0.000000e+00
0.000000e+00
0.000000e+00
0.000000e+00
0.000000e+00
0.000000e+00
0.000000e+00
0.000000e+00
0.000000e+00
0.000000e+00
0.000000e+00
0.000000e+00
0.000000e+00
0.000000e+00
0.000000e+00
0.000000e+00
0.000000e+00
0.000000e+00
0.000000e+00
0.000000e+00
0.000000e+00
0.000000e+00
0.000000e+00
0.000000e+00
0.000000e+00
0.000000e+00
0.000000e+00
0.000000e+00
0.000000e+00
0.000000e+00
0.000000e+00
0.000000e+00
0.000000e+00
0.000000e+00
0.000000e+00
0.000000e+00
0.000000e+00
0.000000e+00
0.000000e+00
0.000000e+00
0.000000e+00
0.000000e+00
0.000000e+00
0.000000e+00
0.000000e+00
0.000000e+00
0.000000e+00
0.000000e+00
0.000000e+00
0.000000e+00
0.000000e+00
0.000000e+00
0.000000e+00
0.000000e+00
0.000000e+00
0.000000e+00
0.000000e+00
0.000000e+00
0.000000e+00
0.000000e+00
0.000000e+00
0.000000e+00
0.000000e+00
0.000000e+00
4.698404e-18
6.786609e-18
5.173018e-18
2.851350e-18
5.869046e-18
1.498559e-18
2.503267e-18
5.831173e-18
5.140845e-18
6.206192e-18
2.043262e-18
2.533669e-18
3.753117e-18
2.517636e-18
2.238900e-18
3.620871e-18
4.040299e-18
3.061350e-18
4.319099e-18
5.941690e-18
-1.407246e-18
9.722007e-19
1.621068e-18
4.623140e-18
3.206846e-18
1.382020e-18
-1.221642e-18
5.306229e-18
6.713548e-18
6.736787e-18
-2.309388e-18
4.638408e-18
-8.818678e-18
1.169902e-18
4.028415e-18
5.393197e-18
7.612932e-18
2.885907e-18
1.081294e-17
1.161069e-17
-1.206607e-17
-1.106171e-17
5.068062e-18
5.849799e-18
7.665896e-18
3.815395e-17
1.502246e-16
4.228899e-16
1.396397e-15
4.447221e-15
1.338062e-14
3.863313e-14
1.072242e-13
2.864715e-13
7.379061e-13
1.834705e-12
4.408982e-12
1.025239e-11
2.309446e-11
5.044751e-11
1.069665e-10
2.203612e-10
4.414485e-10
8.606749e-10
1.634365e-09
3.025013e-09
5.461021e-09
9.622172e-09
0.000000e+00
0.000000e+00
1.509706e-18
2.081499e-18
2.893700e-18
5.367266e-18
3.935137e-18
6.168566e-18
3.333714e-18
-2.599237e-19
-4.408705e-19
2.528172e-18
-5.967151e-19
1.848333e-18
1.924391e-18
-9.863137e-19
7.140498e-19
3.946644e-19
2.742509e-18
3.489066e-18
4.053690e-18
2.206855e-18
6.824738e-18
2.269031e-18
1.986535e-18
1.785306e-18
4.224733e-18
-1.790220e-18
3.506317e-18
-5.559258e-18
3.444308e-18
-2.633523e-18
5.617858e-18
4.645226e-18
-3.165082e-18
3.345201e-18
-3.694181e-18
5.056354e-19
2.452477e-18
-2.545289e-18
1.370032e-17
2.133089e-18
-6.500110e-18
-1.328474e-18
4.636718e-18
5.848042e-18
6.028136e-18
2.998092e-17
1.227993e-16
4.189113e-16
1.398979e-15
4.355493e-15
1.313765e-14
3.802068e-14
1.056977e-13
2.827509e-13
7.291023e-13
1.814562e-12
4.364247e-12
1.015597e-11
2.289233e-11
5.003537e-11
1.061482e-10
2.187778e-10
4.384608e-10
8.551746e-10
1.624479e-09
3.007656e-09
5.431242e-09
9.572221e-09
0.000000e+00
0.000000e+00
5.352912e-18
1.331129e-18
5.073073e-18
6.588508e-18
4.948418e-18
1.821834e-18
5.339137e-18
1.788340e-18
1.438197e-18
-6.153960e-18
5.636150e-18
-5.881793e-19
-2.334072e-18
1.331330e-18
7.083695e-20
-1.184029e-18
5.366387e-18
2.439270e-18
2.490261e-18
2.551618e-18
3.869369e-18
1.824277e-18
2.961772e-18
4.874196e-18
8.136181e-19
4.565411e-18
-4.086450e-18
4.918282e-19
3.947800e-18
5.943058e-18
3.645401e-18
7.484241e-18
-8.179030e-18
-9.714937e-18
3.024957e-18
-4.130260e-18
-8.369801e-18
3.391368e-19
9.181386e-18
3.281285e-18
1.050772e-17
1.061595e-17
1.162302e-17
-7.389695e-18
3.678910e-18
5.068866e-17
1.191743e-16
3.843019e-16
1.327243e-15
4.201834e-15
1.272121e-14
3.694179e-14
1.029303e-13
2.759911e-13
7.131735e-13
1.778156e-12
4.283448e-12
9.981788e-12
2.252755e-11
4.929208e-11
1.046736e-10
2.159272e-10
4.330873e-10
8.452912e-10
1.606732e-09
2.976530e-09
5.377894e-09
9.482829e-09
0.000000e+00
0.000000e+00
1.538739e-18
-1.590033e-19
-1.431363e-18
3.662899e-19
-1.092761e-18
5.011776e-18
4.998744e-18
4.740089e-18
5.274282e-18
5.769199e-18
4.325171e-18
4.575802e-19
3.770726e-18
6.957188e-20
5.482446e-18
1.578792e-18
5.642703e-18
-9.211957e-19
-2.328875e-18
2.572870e-18
-3.202724e-18
1.663553e-18
-1.624872e-19
-8.137174e-20
2.364603e-18
-3.433243e-18
4.099307e-18
7.074102e-18
1.815993e-18
1.308842e-17
9.974994e-18
1.167570e-17
6.692245e-19
1.073795e-17
6.728945e-19
4.722011e-18
6.719634e-18
8.472118e-20
2.377642e-18
-6.468170e-18
1.245305e-17
1.188108e-17
8.628872e-18
1.044678e-17
8.036306e-18
4.656881e-17
9.987593e-17
4.059786e-16
1.223581e-15
3.990395e-15
1.215271e-14
3.535184e-14
9.899024e-14
2.663552e-13
6.903516e-13
1.725848e-12
4.167314e-12
9.731498e-12
2.200342e-11
4.822421e-11
1.025556e-10
2.118341e-10
4.253748e-10
8.311128e-10
1.581287e-09
2.931927e-09
5.301492e-09
9.354887e-09
0.000000e+00
0.000000e+00
6.838393e-18
3.966224e-18
4.895723e-18
-1.597105e-19
2.551800e-18
3.601318e-18
3.504838e-18
6.415653e-18
3.375695e-20
1.345380e-18
4.989106e-18
5.353767e-18
-2.491934e-19
2.868982e-18
-4.387217e-18
2.009109e-18
2.075235e-18
1.964388e-18
-2.532439e-18
3.324550e-18
5.681005e-18
-0.000000e+00
3.988121e-18
-8.156296e-20
9.813017e-19
4.921346e-18
4.937735e-18
7.267223e-18
8.121122e-18
7.482923e-18
6.838717e-18
8.948494e-18
7.964681e-18
8.402557e-20
6.819864e-18
-4.470822e-18
4.690248e-18
7.196287e-18
1.187456e-18
2.804310e-18
7.450130e-18
5.737250e-18
-5.791258e-18
2.098262e-18
1.070345e-17
1.089345e-17
8.444123e-17
3.529355e-16
1.155590e-15
3.720163e-15
1.138958e-14
3.336789e-14
9.390413e-14
2.538365e-13
6.607219e-13
1.657913e-12
4.016270e-12
9.405778e-12
2.132071e-11
4.683285e-11
9.979546e-11
2.064998e-10
4.153242e-10
8.126391e-10
1.548141e-09
2.873843e-09
5.202035e-09
9.188405e-09
0.000000e+00
0.000000e+00
4.717546e-18
4.054397e-18
-5.200930e-19
-4.064253e-18
2.886442e-18
6.275167e-19
3.874693e-18
4.852738e-18
8.740456e-19
2.490282e-18
4.248222e-18
2.071970e-18
3.142212e-18
1.877342e-18
-1.153847e-18
3.705079e-18
3.422554e-18
4.173620e-18
2.148948e-18
3.003177e-18
-2.844507e-18
1.384012e-18
6.772245e-18
1.636276e-18
2.133776e-18
2.141005e-18
6.280209e-18
9.618522e-18
8.984144e-18
2.753223e-18
-2.342138e-18
1.089877e-18
3.612005e-18
-2.271848e-18
7.710638e-18
-4.219305e-19
1.071021e-17
7.086275e-18
-2.012362e-19
4.529303e-18
-2.549854e-19
-8.354532e-18
1.059804e-17
2.734557e-18
1.947721e-18
3.049106e-17
8.138506e-17
2.969298e-16
1.042898e-15
3.402177e-15
1.047277e-14
3.092684e-14
8.770131e-14
2.386482e-13
6.245687e-13
1.574785e-12
3.831177e-12
9.005843e-12
2.048174e-11
4.512159e-11
9.639852e-11
1.999322e-10
4.029471e-10
7.898863e-10
1.507317e-09
2.802312e-09
5.079572e-09
8.983458e-09
0.000000e+00
0.000000e+00
2.469825e-18
9.284239e-19
4.147757e-18
4.454606e-18
2.230970e-18
2.356244e-18
1.402770e-18
4.335994e-18
1.602633e-18
4.405697e-18
3.698673e-18
4.781614e-18
4.726235e-18
1.325912e-18
3.330542e-18
4.050431e-19
2.856814e-18
2.514052e-18
6.615956e-18
3.251525e-19
2.361665e-18
1.469278e-18
-8.185632e-19
-2.956287e-18
1.812867e-18
8.600144e-18
-0.000000e+00
8.324055e-19
8.848609e-18
7.029449e-18
-1.928779e-18
4.116396e-18
4.332819e-18
2.485017e-18
-3.626177e-18
8.356896e-18
6.548208e-19
8.140257e-19
-3.725064e-18
-7.866405e-18
3.086882e-18
-5.640716e-18
-6.309165e-18
4.721222e-18
8.711932e-18
1.262115e-18
8.701924e-17
2.677316e-16
9.328049e-16
2.994881e-15
9.435874e-15
2.814849e-14
8.055597e-14
2.209455e-13
5.823047e-13
1.477244e-12
3.613453e-12
8.534498e-12
1.949113e-11
4.309832e-11
9.237832e-11
1.921536e-10
3.882795e-10
7.629127e-10
1.458908e-09
2.717479e-09
4.934330e-09
8.740399e-09
0.000000e+00
0.000000e+00
-1.416097e-18
5.664500e-18
6.805284e-18
4.543898e-18
2.410713e-19
3.471587e-18
5.617729e-19
4.278533e-18
4.060368e-18
9.044268e-19
4.713289e-18
3.137319e-18
1.523278e-18
4.555469e-18
5.022614e-18
-2.937970e-18
4.014676e-18
-1.217822e-18
-2.764384e-18
-9.775485e-19
3.593120e-18
-1.638028e-18
1.150420e-17
3.628375e-18
1.092389e-17
7.805702e-18
9.829356e-18
5.847130e-18
5.861021e-18
8.725122e-18
5.462131e-18
1.249554e-17
-1.516265e-18
-5.543586e-18
-3.354031e-18
6.353834e-18
-4.847712e-18
-1.595843e-18
5.695225e-18
-3.765488e-18
-4.376534e-18
-3.130106e-18
-8.631532e-19
-2.221277e-18
7.402661e-18
9.101085e-18
5.955675e-17
2.265485e-16
7.942130e-16
2.595883e-15
8.296988e-15
2.508400e-14
7.255972e-14
2.009988e-13
5.344960e-13
1.366541e-12
3.365284e-12
7.995763e-12
1.835637e-11
4.077660e-11
8.775835e-11
1.832045e-10
3.713899e-10
7.318319e-10
1.403100e-09
2.619644e-09
4.766786e-09
8.459976e-09
0.000000e+00
0.000000e+00
5.095288e-18
5.888766e-18
2.370275e-18
4.167021e-18
3.445834e-18
5.296600e-18
2.555416e-18
2.943445e-18
6.087470e-18
-2.782929e-18
2.145511e-18
2.090072e-18
1.316026e-18
5.610009e-18
6.240877e-18
-6.894404e-19
1.461584e-18
4.716753e-18
3.911480e-18
-0.000000e+00
2.294561e-18
-1.480121e-18
7.592345e-18
8.613499e-18
8.642843e-18
8.336109e-18
5.851039e-18
9.801984e-18
9.232989e-18
6.220828e-18
6.523079e-18
2.443290e-18
6.070861e-18
7.846533e-18
7.196506e-18
5.911947e-19
-7.583339e-18
3.019387e-18
6.961149e-18
3.080742e-18
-1.235230e-17
4.944304e-18
-1.500336e-18
3.069054e-18
3.063154e-17
3.341041e-18
4.649615e-17
1.639750e-16
6.587369e-16
2.179343e-15
7.078762e-15
2.177205e-14
6.391765e-14
1.792882e-13
4.819863e-13
1.244139e-12
3.089802e-12
7.395481e-12
1.708828e-11
3.817578e-11
8.257331e-11
1.731456e-10
3.523828e-10
6.968207e-10
1.340188e-09
2.509288e-09
4.577712e-09
8.143405e-09
0.000000e+00
0.000000e+00
-1.370787e-18
3.178135e-18
-1.912233e-18
2.458750e-18
8.661777e-19
-1.977987e-19
-1.189645e-18
1.775322e-18
4.510852e-18
5.386515e-18
-4.655823e-19
2.318227e-18
4.516404e-18
4.944232e-18
8.922821e-19
2.436307e-18
2.846963e-18
-2.853096e-18
6.375511e-18
6.231834e-18
9.709894e-18
4.459857e-18
7.791589e-18
2.994142e-18
3.837496e-18
-8.280694e-18
3.520774e-18
-4.114986e-18
3.574292e-18
-1.136664e-18
5.267060e-18
-2.677545e-18
3.881419e-18
-1.836046e-18
7.093528e-18
-7.021873e-19
3.897508e-18
5.463703e-18
1.914972e-18
-2.630035e-18
-3.659918e-18
-7.321240e-18
-3.831236e-18
-1.059963e-18
-1.397899e-18
1.315103e-17
3.057565e-17
1.236435e-16
5.146460e-16
1.790046e-15
5.872165e-15
1.837695e-14
5.484744e-14
1.562506e-13
4.257673e-13
1.112216e-12
2.790983e-12
6.741207e-12
1.570092e-11
3.532175e-11
7.686967e-11
1.620590e-10
3.314009e-10
6.581231e-10
1.270579e-09
2.387084e-09
4.368196e-09
7.792412e-09
0.000000e+00
0.000000e+00
-1.891593e-18
7.619291e-19
2.619915e-19
3.805045e-18
1.474318e-18
-2.333749e-19
3.644867e-18
6.916770e-18
1.927897e-18
2.449347e-18
3.036962e-18
-1.681002e-18
4.782259e-18
4.786212e-18
-7.309926e-19
-3.498514e-18
-8.154600e-19
3.598212e-18
1.640982e-18
7.411293e-18
5.124699e-18
3.981986e-18
6.492579e-18
2.755084e-18
-3.850249e-18
2.180850e-18
-2.940809e-18
3.323448e-18
2.863747e-18
5.479342e-18
9.320813e-18
-6.287245e-18
9.086195e-18
4.243605e-18
1.285536e-17
3.031019e-18
9.453979e-18
2.542824e-18
8.442064e-18
1.180015e-17
-1.207727e-17
3.249834e-18
9.105889e-18
1.271121e-17
8.675417e-18
-2.174093e-18
3.838980e-17
1.042959e-16
3.882481e-16
1.392467e-15
4.689976e-15
1.499077e-14
4.568934e-14
1.325781e-13
3.672388e-13
9.733140e-13
2.473866e-12
6.042530e-12
1.421202e-11
3.224684e-11
7.070572e-11
1.500482e-10
3.086252e-10
6.160495e-10
1.194798e-09
2.253901e-09
4.139650e-09
7.409242e-09
0.000000e+00
0.000000e+00
5.989811e-18
1.603823e-18
2.139769e-18
4.403424e-18
2.894254e-18
1.099211e-18
5.592327e-18
5.146071e-18
-1.027297e-18
3.867027e-18
-2.430362e-19
1.823783e-18
1.216913e-18
2.761904e-18
4.882812e-18
5.384019e-18
2.781862e-18
6.239791e-18
8.405866e-18
8.603404e-18
-4.151427e-18
8.830539e-18
7.185445e-18
5.946899e-18
-6.294742e-18
8.490772e-18
5.597644e-18
6.235161e-18
-1.347063e-17
6.581025e-18
-2.511173e-18
1.857620e-18
1.979502e-18
4.202655e-18
-1.182845e-18
4.504928e-18
-5.935569e-19
7.882274e-18
5.038939e-19
-4.181056e-18
4.829280e-18
7.718128e-18
-4.531819e-18
-5.017631e-18
1.934482e-18
-1.419334e-18
3.390508e-17
7.435901e-17
2.776319e-16
1.044519e-15
3.581009e-15
1.181740e-14
3.675632e-14
1.090586e-13
3.080157e-13
8.308394e-13
2.144841e-12
5.311268e-12
1.264318e-11
2.899025e-11
6.415147e-11
1.372372e-10
2.842720e-10
5.709732e-10
1.113478e-09
2.110790e-09
3.893788e-09
6.996636e-09
0.000000e+00
0.000000e+00
6.253642e-18
3.474263e-18
1.539933e-18
7.094508e-19
2.459618e-18
1.084051e-18
-1.178979e-18
3.714410e-18
4.504716e-18
-0.000000e+00
-4.012380e-18
3.894350e-18
6.418223e-18
-2.279199e-18
4.733216e-18
4.256888e-18
4.765180e-18
4.948542e-19
3.477429e-18
1.662017e-18
4.335605e-18
5.100620e-18
5.531957e-18
9.909752e-18
6.855034e-18
1.023177e-17
1.150558e-17
-6.494872e-18
7.089046e-18
-1.952366e-18
2.385752e-18
1.003080e-18
-4.591166e-18
8.261969e-18
6.710049e-18
-2.605936e-18
6.238494e-18
-3.457146e-18
8.273889e-18
-1.238125e-17
2.284057e-18
9.864228e-18
6.428954e-18
1.301443e-17
7.362165e-18
-1.287863e-17
1.001887e-17
3.907497e-17
2.049982e-16
7.507627e-16
2.642835e-15
8.912595e-15
2.849814e-14
8.657408e-14
2.501185e-13
6.887945e-13
1.811826e-12
4.562117e-12
1.102093e-11
2.559881e-11
5.728913e-11
1.237694e-10
2.585902e-10
5.233211e-10
1.027343e-09
1.958960e-09
3.632591e-09
6.557774e-09
0.000000e+00
0.000000e+00
1.869602e-18
4.073716e-18
4.564227e-18
3.253970e-18
5.055917e-18
2.327569e-18
3.233605e-18
2.834370e-19
4.698591e-18
1.985935e-18
4.584203e-18
3.656420e-18
3.256799e-18
4.898365e-18
6.061262e-18
2.630931e-18
1.320699e-18
5.635113e-18
5.156862e-18
1.151589e-17
1.071137e-17
5.955212e-18
8.403198e-20
3.282020e-18
6.150161e-18
-3.625782e-18
6.328079e-19
9.116759e-18
3.557203e-18
-7.311561e-18
1.010610e-17
2.854281e-18
-4.462734e-19
-3.735502e-18
4.207787e-18
-3.621307e-18
-5.925072e-18
-4.883939e-19
3.849895e-18
-2.458926e-18
-6.822126e-19
8.485729e-18
9.243956e-18
4.382021e-18
4.991464e-18
2.204920e-18
1.271185e-17
3.662369e-17
1.238203e-16
4.978592e-16
1.847762e-15
6.464180e-15
2.117085e-14
6.607005e-14
1.957549e-13
5.520877e-13
1.484555e-12
3.813414e-12
9.378030e-12
2.212942e-11
5.021565e-11
1.098089e-10
2.318576e-10
4.735635e-10
9.371837e-10
1.799733e-09
3.358232e-09
6.096165e-09
0.000000e+00
0.000000e+00
1.904859e-18
1.675988e-19
-4.137810e-19
5.319616e-18
6.646131e-18
3.334743e-18
4.423521e-18
6.784430e-18
2.107506e-18
4.056968e-19
1.300218e-18
3.583364e-18
1.143419e-18
-1.639135e-19
2.961997e-18
5.452567e-18
3.151928e-18
2.497552e-18
7.182844e-18
8.793673e-18
3.693151e-18
-8.408290e-19
9.430122e-18
8.428487e-20
1.145057e-17
4.979546e-18
4.960543e-19
3.388986e-18
9.287450e-18
-8.871730e-19
-7.520680e-18
1.172555e-17
-1.159675e-17
-8.286500e-19
4.774577e-18
-2.746852e-19
-7.157716e-19
1.107735e-17
1.349682e-18
-7.124867e-19
2.828872e-18
2.568783e-18
6.117187e-18
8.564590e-18
2.819900e-18
9.942308e-20
4.575117e-18
2.004018e-17
8.561910e-17
3.512149e-16
1.255031e-15
4.466197e-15
1.507646e-14
4.832210e-14
1.471130e-13
4.259700e-13
1.174339e-12
3.087422e-12
7.755482e-12
1.865281e-11
4.304889e-11
9.554780e-11
2.043857e-10
4.222085e-10
8.438367e-10
1.634485e-09
3.072971e-09
5.615476e-09
0.000000e+00
0.000000e+00
5.664342e-18
5.504680e-18
5.847047e-18
-1.468604e-18
6.730044e-19
2.803829e-18
-2.268142e-18
-8.105601e-20
-4.057054e-18
6.257981e-18
5.050527e-18
3.268288e-18
1.148096e-18
7.904827e-18
3.472940e-18
8.302476e-18
6.333139e-18
-3.176652e-18
8.130239e-18
1.142326e-17
9.927768e-18
5.812568e-18
-6.028893e-18
1.210845e-17
-6.015122e-18
3.357047e-18
5.849982e-18
2.656214e-18
1.274934e-17
-7.962413e-18
-3.406989e-19
1.245439e-17
-6.665071e-18
-5.543900e-18
7.994902e-18
1.401139e-18
5.127751e-18
1.422225e-18
-1.461818e-18
1.956988e-18
5.062777e-18
2.147126e-18
-6.761024e-19
-2.548665e-18
7.419255e-18
2.267038e-18
5.596642e-18
1.745544e-17
5.091956e-17
2.084127e-16
8.275394e-16
2.977582e-15
1.027586e-14
3.384554e-14
1.059013e-13
3.152058e-13
8.929705e-13
2.409735e-12
6.202938e-12
1.525809e-11
3.593744e-11
8.122262e-11
1.765408e-10
3.698196e-10
7.481780e-10
1.464605e-09
2.779039e-09
5.119307e-09
0.000000e+00
0.000000e+00
5.957899e-18
-1.974513e-18
1.267460e-18
4.776683e-18
1.639715e-18
-2.106024e-18
-4.052626e-20
4.949604e-18
1.788159e-18
5.703583e-18
5.068050e-18
2.297667e-18
1.384484e-17
7.449058e-18
9.141834e-18
1.050998e-17
3.765267e-18
9.311288e-18
-7.144593e-18
-3.493634e-18
4.340518e-18
8.182376e-18
1.139497e-17
1.028118e-17
1.689435e-19
2.619198e-18
1.700619e-18
-1.875087e-18
1.040603e-17
6.761497e-19
-1.576822e-18
-3.058553e-18
-4.678894e-18
-1.545074e-19
4.093680e-19
7.361806e-18
7.064470e-19
-2.532564e-18
-7.045533e-18
1.077396e-18
-2.162658e-18
-5.611178e-18
3.643922e-18
7.533410e-18
-2.904619e-20
-1.859023e-18
1.538280e-17
1.482838e-17
4.405442e-17
1.254258e-16
5.356381e-16
1.917040e-15
6.747065e-15
2.272777e-14
7.299620e-14
2.233364e-13
6.507011e-13
1.805712e-12
4.775662e-12
1.205230e-11
2.906991e-11
6.713904e-11
1.487878e-10
3.170757e-10
6.511855e-10
1.291519e-09
2.478583e-09
4.610997e-09
0.000000e+00
0.000000e+00
2.565292e-18
3.045280e-18
5.705039e-18
6.113205e-18
2.207126e-18
2.350364e-18
4.787182e-18
5.120986e-18
2.444959e-18
4.252524e-18
2.299222e-18
4.783937e-18
1.325600e-17
-1.497499e-18
6.178808e-18
7.872597e-18
2.686557e-18
2.943972e-18
7.496787e-18
3.836672e-18
2.594901e-18
-2.005285e-18
-4.540010e-19
2.112185e-19
1.161904e-19
-9.243444e-18
-2.746804e-19
-4.727831e-19
-9.814971e-18
1.150267e-17
7.316143e-19
2.363816e-18
6.309460e-18
-6.892871e-19
7.183083e-18
1.880198e-18
1.029575e-17
4.412275e-18
5.259655e-18
1.203441e-17
-2.484416e-18
2.497536e-18
-1.259295e-18
8.817546e-19
-2.151571e-18
-6.396677e-18
2.696810e-18
1.216330e-17
2.988659e-17
7.507209e-17
3.003006e-16
1.191346e-15
4.295878e-15
1.470034e-14
4.830498e-14
1.515909e-13
4.538962e-13
1.295699e-12
3.525968e-12
9.150847e-12
2.267042e-11
5.368727e-11
1.217442e-10
2.648786e-10
5.540977e-10
1.116875e-09
2.173803e-09
4.093605e-09
0.000000e+00
0.000000e+00
6.175250e-18
5.007900e-18
-1.745810e-18
4.656840e-19
5.389098e-18
4.949125e-18
-4.064410e-19
1.793356e-18
3.109040e-18
6.080868e-18
8.916305e-18
8.957296e-18
1.016087e-17
8.525730e-18
6.455018e-18
3.276974e-18
1.077408e-17
7.248244e-18
2.404294e-18
4.094246e-18
-2.090298e-18
-1.309486e-18
3.696889e-19
9.507506e-18
1.056467e-19
4.706727e-18
2.002091e-18
-1.096119e-18
1.759030e-18
-8.887288e-18
4.215018e-18
-7.338978e-18
-1.007444e-17
2.270927e-18
3.411501e-18
-4.092539e-18
1.219780e-18
9.261430e-18
3.883388e-18
-9.601123e-18
6.673256e-18
-1.134252e-17
-1.309217e-18
4.141343e-18
3.774383e-18
7.654272e-20
4.756222e-18
6.755710e-18
6.299339e-18
5.612902e-17
1.899555e-16
7.365910e-16
2.639507e-15
9.222815e-15
3.082671e-14
9.888105e-14
3.035054e-13
8.900666e-13
2.491704e-12
6.656389e-12
1.697092e-11
4.132254e-11
9.620097e-11
2.144602e-10
4.586542e-10
9.429261e-10
1.867438e-09
3.570375e-09
0.000000e+00
0.000000e+00
5.678821e-18
5.560967e-18
4.848686e-18
2.228272e-18
3.488313e-18
6.096517e-18
-1.630630e-19
-4.911310e-19
8.223650e-19
5.454292e-18
1.311904e-17
1.000588e-17
3.012384e-18
8.810921e-18
8.157234e-18
1.061303e-17
8.179835e-18
7.933341e-18
-4.391128e-18
1.203792e-18
-1.996246e-18
3.200808e-18
3.597245e-18
-1.225538e-18
4.432034e-18
-1.685096e-18
5.131722e-18
5.414100e-18
3.253587e-18
5.878335e-18
-7.655152e-18
4.538971e-18
-6.014660e-18
-4.393258e-18
1.346946e-17
9.450828e-19
1.377955e-18
-1.029456e-19
-1.088532e-17
7.701738e-18
-5.260085e-18
2.842397e-18
3.166908e-20
5.510259e-18
2.195607e-18
2.343350e-18
-3.224720e-18
1.947637e-17
-2.823669e-19
3.639628e-17
1.111179e-16
4.347999e-16
1.608888e-15
5.632614e-15
1.909332e-14
6.234826e-14
1.953585e-13
5.866995e-13
1.686314e-12
4.633298e-12
1.216175e-11
3.049243e-11
7.305366e-11
1.673873e-10
3.672824e-10
7.730266e-10
1.563635e-09
3.045916e-09
0.000000e+00
0.000000e+00
5.960393e-18
5.283329e-18
-2.430404e-19
4.379848e-18
5.120624e-18
6.197288e-18
-2.293030e-18
2.962927e-18
1.025852e-17
9.643424e-18
1.135391e-17
4.356179e-18
6.635763e-18
9.426455e-18
8.133610e-18
1.020893e-17
6.712141e-18
4.307863e-18
8.966753e-18
4.457746e-18
2.524884e-18
2.017873e-18
1.133075e-17
1.753718e-18
8.472454e-18
4.901531e-18
-4.489302e-18
8.555581e-19
6.601132e-18
-9.505055e-19
2.138509e-18
4.857562e-19
3.376341e-18
2.119665e-18
7.670511e-18
7.949899e-18
6.138967e-18
6.896125e-18
5.787428e-18
-1.042381e-18
-3.615211e-19
-3.308991e-18
-5.984496e-18
-9.208695e-19