# vtk DataFile Version 3.0
Resultado Projeto 3
ASCII
DATASET STRUCTURED_GRID
DIMENSIONS 140 60 1 
POINTS 8400 double
0.000000e+00 0.000000e+00 0.000000e+00
2.517986e-02 0.000000e+00 0.000000e+00
5.035971e-02 0.000000e+00 0.000000e+00
7.553957e-02 0.000000e+00 0.000000e+00
1.007194e-01 0.000000e+00 0.000000e+00
1.258993e-01 0.000000e+00 0.000000e+00
1.510791e-01 0.000000e+00 0.000000e+00
1.762590e-01 0.000000e+00 0.000000e+00
2.014388e-01 0.000000e+00 0.000000e+00
2.266187e-01 0.000000e+00 0.000000e+00
2.517986e-01 0.000000e+00 0.000000e+00
2.769784e-01 0.000000e+00 0.000000e+00
3.021583e-01 0.000000e+00 0.000000e+00
3.273381e-01 0.000000e+00 0.000000e+00
3.525180e-01 0.000000e+00 0.000000e+00
3.776978e-01 0.000000e+00 0.000000e+00
4.028777e-01 0.000000e+00 0.000000e+00
4.280576e-01 0.000000e+00 0.000000e+00
4.532374e-01 0.000000e+00 0.000000e+00
4.784173e-01 0.000000e+00 0.000000e+00
5.035971e-01 0.000000e+00 0.000000e+00
5.287770e-01 0.000000e+00 0.000000e+00
5.539568e-01 0.000000e+00 0.000000e+00
5.791367e-01 0.000000e+00 0.000000e+00
6.043165e-01 0.000000e+00 0.000000e+00
6.294964e-01 0.000000e+00 0.000000e+00
6.546763e-01 0.000000e+00 0.000000e+00
6.798561e-01 0.000000e+00 0.000000e+00
7.050360e-01 0.000000e+00 0.000000e+00
7.302158e-01 0.000000e+00 0.000000e+00
7.553957e-01 0.000000e+00 0.000000e+00
7.805755e-01 0.000000e+00 0.000000e+00
8.057554e-01 0.000000e+00 0.000000e+00
8.309353e-01 0.000000e+00 0.000000e+00
8.561151e-01 0.000000e+00 0.000000e+00
8.812950e-01 0.000000e+00 0.000000e+00
9.064748e-01 0.000000e+00 0.000000e+00
9.316547e-01 0.000000e+00 0.000000e+00
9.568345e-01 0.000000e+00 0.000000e+00
9.820144e-01 0.000000e+00 0.000000e+00
1.007194e+00 0.000000e+00 0.000000e+00
1.032374e+00 0.000000e+00 0.000000e+00
1.057554e+00 0.000000e+00 0.000000e+00
1.082734e+00 0.000000e+00 0.000000e+00
1.107914e+00 0.000000e+00 0.000000e+00
1.133094e+00 0.000000e+00 0.000000e+00
1.158273e+00 0.000000e+00 0.000000e+00
1.183453e+00 0.000000e+00 0.000000e+00
1.208633e+00 0.000000e+00 0.000000e+00
1.233813e+00 0.000000e+00 0.000000e+00
1.258993e+00 0.000000e+00 0.000000e+00
1.284173e+00 0.000000e+00 0.000000e+00
1.309353e+00 0.000000e+00 0.000000e+00
1.334532e+00 0.000000e+00 0.000000e+00
1.359712e+00 0.000000e+00 0.000000e+00
1.384892e+00 0.000000e+00 0.000000e+00
1.410072e+00 0.000000e+00 0.000000e+00
1.435252e+00 0.000000e+00 0.000000e+00
1.460432e+00 0.000000e+00 0.000000e+00
1.485612e+00 0.000000e+00 0.000000e+00
1.510791e+00 0.000000e+00 0.000000e+00
1.535971e+00 0.000000e+00 0.000000e+00
1.561151e+00 0.000000e+00 0.000000e+00
1.586331e+00 0.000000e+00 0.000000e+00
1.611511e+00 0.000000e+00 0.000000e+00
1.636691e+00 0.000000e+00 0.000000e+00
1.661871e+00 0.000000e+00 0.000000e+00
1.687050e+00 0.000000e+00 0.000000e+00
1.712230e+00 0.000000e+00 0.000000e+00
1.737410e+00 0.000000e+00 0.000000e+00
1.762590e+00 0.000000e+00 0.000000e+00
1.787770e+00 0.000000e+00 0.000000e+00
1.812950e+00 0.000000e+00 0.000000e+00
1.838129e+00 0.000000e+00 0.000000e+00
1.863309e+00 0.000000e+00 0.000000e+00
1.888489e+00 0.000000e+00 0.000000e+00
1.913669e+00 0.000000e+00 0.000000e+00
1.938849e+00 0.000000e+00 0.000000e+00
1.964029e+00 0.000000e+00 0.000000e+00
1.989209e+00 0.000000e+00 0.000000e+00
2.014388e+00 0.000000e+00 0.000000e+00
2.039568e+00 0.000000e+00 0.000000e+00
2.064748e+00 0.000000e+00 0.000000e+00
2.089928e+00 0.000000e+00 0.000000e+00
2.115108e+00 0.000000e+00 0.000000e+00
2.140288e+00 0.000000e+00 0.000000e+00
2.165468e+00 0.000000e+00 0.000000e+00
2.190647e+00 0.000000e+00 0.000000e+00
2.215827e+00 0.000000e+00 0.000000e+00
2.241007e+00 0.000000e+00 0.000000e+00
2.266187e+00 0.000000e+00 0.000000e+00
2.291367e+00 0.000000e+00 0.000000e+00
2.316547e+00 0.000000e+00 0.000000e+00
2.341727e+00 0.000000e+00 0.000000e+00
2.366906e+00 0.000000e+00 0.000000e+00
2.392086e+00 0.000000e+00 0.000000e+00
2.417266e+00 0.000000e+00 0.000000e+00
2.442446e+00 0.000000e+00 0.000000e+00
2.467626e+00 0.000000e+00 0.000000e+00
2.492806e+00 0.000000e+00 0.000000e+00
2.517986e+00 0.000000e+00 0.000000e+00
2.543165e+00 0.000000e+00 0.000000e+00
2.568345e+00 0.000000e+00 0.000000e+00
2.593525e+00 0.000000e+00 0.000000e+00
2.618705e+00 0.000000e+00 0.000000e+00
2.643885e+00 0.000000e+00 0.000000e+00
2.669065e+00 0.000000e+00 0.000000e+00
2.694245e+00 0.000000e+00 0.000000e+00
2.719424e+00 0.000000e+00 0.000000e+00
2.744604e+00 0.000000e+00 0.000000e+00
2.769784e+00 0.000000e+00 0.000000e+00
2.794964e+00 0.000000e+00 0.000000e+00
2.820144e+00 0.000000e+00 0.000000e+00
2.845324e+00 0.000000e+00 0.000000e+00
2.870504e+00 0.000000e+00 0.000000e+00
2.895683e+00 0.000000e+00 0.000000e+00
2.920863e+00 0.000000e+00 0.000000e+00
2.946043e+00 0.000000e+00 0.000000e+00
2.971223e+00 0.000000e+00 0.000000e+00
2.996403e+00 0.000000e+00 0.000000e+00
3.021583e+00 0.000000e+00 0.000000e+00
3.046763e+00 0.000000e+00 0.000000e+00
3.071942e+00 0.000000e+00 0.000000e+00
3.097122e+00 0.000000e+00 0.000000e+00
3.122302e+00 0.000000e+00 0.000000e+00
3.147482e+00 0.000000e+00 0.000000e+00
3.172662e+00 0.000000e+00 0.000000e+00
3.197842e+00 0.000000e+00 0.000000e+00
3.223022e+00 0.000000e+00 0.000000e+00
3.248201e+00 0.000000e+00 0.000000e+00
3.273381e+00 0.000000e+00 0.000000e+00
3.298561e+00 0.000000e+00 0.000000e+00
3.323741e+00 0.000000e+00 0.000000e+00
3.348921e+00 0.000000e+00 0.000000e+00
3.374101e+00 0.000000e+00 0.000000e+00
3.399281e+00 0.000000e+00 0.000000e+00
3.424460e+00 0.000000e+00 0.000000e+00
3.449640e+00 0.000000e+00 0.000000e+00
3.474820e+00 0.000000e+00 0.000000e+00
3.500000e+00 0.000000e+00 0.000000e+00
0.000000e+00 1.694915e-02 0.000000e+00
2.517986e-02 1.694915e-02 0.000000e+00
5.035971e-02 1.694915e-02 0.000000e+00
7.553957e-02 1.694915e-02 0.000000e+00
1.007194e-01 1.694915e-02 0.000000e+00
1.258993e-01 1.694915e-02 0.000000e+00
1.510791e-01 1.694915e-02 0.000000e+00
1.762590e-01 1.694915e-02 0.000000e+00
2.014388e-01 1.694915e-02 0.000000e+00
2.266187e-01 1.694915e-02 0.000000e+00
2.517986e-01 1.694915e-02 0.000000e+00
2.769784e-01 1.694915e-02 0.000000e+00
3.021583e-01 1.694915e-02 0.000000e+00
3.273381e-01 1.694915e-02 0.000000e+00
3.525180e-01 1.694915e-02 0.000000e+00
3.776978e-01 1.694915e-02 0.000000e+00
4.028777e-01 1.694915e-02 0.000000e+00
4.280576e-01 1.694915e-02 0.000000e+00
4.532374e-01 1.694915e-02 0.000000e+00
4.784173e-01 1.694915e-02 0.000000e+00
5.035971e-01 1.694915e-02 0.000000e+00
5.287770e-01 1.694915e-02 0.000000e+00
5.539568e-01 1.694915e-02 0.000000e+00
5.791367e-01 1.694915e-02 0.000000e+00
6.043165e-01 1.694915e-02 0.000000e+00
6.294964e-01 1.694915e-02 0.000000e+00
6.546763e-01 1.694915e-02 0.000000e+00
6.798561e-01 1.694915e-02 0.000000e+00
7.050360e-01 1.694915e-02 0.000000e+00
7.302158e-01 1.694915e-02 0.000000e+00
7.553957e-01 1.694915e-02 0.000000e+00
7.805755e-01 1.694915e-02 0.000000e+00
8.057554e-01 1.694915e-02 0.000000e+00
8.309353e-01 1.694915e-02 0.000000e+00
8.561151e-01 1.694915e-02 0.000000e+00
8.812950e-01 1.694915e-02 0.000000e+00
9.064748e-01 1.694915e-02 0.000000e+00
9.316547e-01 1.694915e-02 0.000000e+00
9.568345e-01 1.694915e-02 0.000000e+00
9.820144e-01 1.694915e-02 0.000000e+00
1.007194e+00 1.694915e-02 0.000000e+00
1.032374e+00 1.694915e-02 0.000000e+00
1.057554e+00 1.694915e-02 0.000000e+00
1.082734e+00 1.694915e-02 0.000000e+00
1.107914e+00 1.694915e-02 0.000000e+00
1.133094e+00 1.694915e-02 0.000000e+00
1.158273e+00 1.694915e-02 0.000000e+00
1.183453e+00 1.694915e-02 0.000000e+00
1.208633e+00 1.694915e-02 0.000000e+00
1.233813e+00 1.694915e-02 0.000000e+00
1.258993e+00 1.694915e-02 0.000000e+00
1.284173e+00 1.694915e-02 0.000000e+00
1.309353e+00 1.694915e-02 0.000000e+00
1.334532e+00 1.694915e-02 0.000000e+00
1.359712e+00 1.694915e-02 0.000000e+00
1.384892e+00 1.694915e-02 0.000000e+00
1.410072e+00 1.694915e-02 0.000000e+00
1.435252e+00 1.694915e-02 0.000000e+00
1.460432e+00 1.694915e-02 0.000000e+00
1.485612e+00 1.694915e-02 0.000000e+00
1.510791e+00 1.694915e-02 0.000000e+00
1.535971e+00 1.694915e-02 0.000000e+00
1.561151e+00 1.694915e-02 0.000000e+00
1.586331e+00 1.694915e-02 0.000000e+00
1.611511e+00 1.694915e-02 0.000000e+00
1.636691e+00 1.694915e-02 0.000000e+00
1.661871e+00 1.694915e-02 0.000000e+00
1.687050e+00 1.694915e-02 0.000000e+00
1.712230e+00 1.694915e-02 0.000000e+00
1.737410e+00 1.694915e-02 0.000000e+00
1.762590e+00 1.694915e-02 0.000000e+00
1.787770e+00 1.694915e-02 0.000000e+00
1.812950e+00 1.694915e-02 0.000000e+00
1.838129e+00 1.694915e-02 0.000000e+00
1.863309e+00 1.694915e-02 0.000000e+00
1.888489e+00 1.694915e-02 0.000000e+00
1.913669e+00 1.694915e-02 0.000000e+00
1.938849e+00 1.694915e-02 0.000000e+00
1.964029e+00 1.694915e-02 0.000000e+00
1.989209e+00 1.694915e-02 0.000000e+00
2.014388e+00 1.694915e-02 0.000000e+00
2.039568e+00 1.694915e-02 0.000000e+00
2.064748e+00 1.694915e-02 0.000000e+00
2.089928e+00 1.694915e-02 0.000000e+00
2.115108e+00 1.694915e-02 0.000000e+00
2.140288e+00 1.694915e-02 0.000000e+00
2.165468e+00 1.694915e-02 0.000000e+00
2.190647e+00 1.694915e-02 0.000000e+00
2.215827e+00 1.694915e-02 0.000000e+00
2.241007e+00 1.694915e-02 0.000000e+00
2.266187e+00 1.694915e-02 0.000000e+00
2.291367e+00 1.694915e-02 0.000000e+00
2.316547e+00 1.694915e-02 0.000000e+00
2.341727e+00 1.694915e-02 0.000000e+00
2.366906e+00 1.694915e-02 0.000000e+00
2.392086e+00 1.694915e-02 0.000000e+00
2.417266e+00 1.694915e-02 0.000000e+00
2.442446e+00 1.694915e-02 0.000000e+00
2.467626e+00 1.694915e-02 0.000000e+00
2.492806e+00 1.694915e-02 0.000000e+00
2.517986e+00 1.694915e-02 0.000000e+00
2.543165e+00 1.694915e-02 0.000000e+00
2.568345e+00 1.694915e-02 0.000000e+00
2.593525e+00 1.694915e-02 0.000000e+00
2.618705e+00 1.694915e-02 0.000000e+00
2.643885e+00 1.694915e-02 0.000000e+00
2.669065e+00 1.694915e-02 0.000000e+00
2.694245e+00 1.694915e-02 0.000000e+00
2.719424e+00 1.694915e-02 0.000000e+00
2.744604e+00 1.694915e-02 0.000000e+00
2.769784e+00 1.694915e-02 0.000000e+00
2.794964e+00 1.694915e-02 0.000000e+00
2.820144e+00 1.694915e-02 0.000000e+00
[...]
POINT_DATA 8400
SCALARS RES_Cont double
LOOKUP_TABLE default
0.000000e+00
0.000000e+00
0.000000e+00
0.000000e+00
0.000000e+00
0.000000e+00
0.000000e+00
0.000000e+00
0.000000e+00
0.000000e+00
0.000000e+00
0.000000e+00
0.000000e+00
0.000000e+00
0.000000e+00
0.000000e+00
0.000000e+00
0.000000e+00
0.000000e+00
0.000000e+00
0.000000e+00
0.000000e+00
0.000000e+00
0.000000e+00
0.000000e+00
0.000000e+00
0.000000e+00
0.000000e+00
0.000000e+00
0.000000e+00
0.000000e+00
0.000000e+00
0.000000e+00
0.000000e+00
0.000000e+00
0.000000e+00
0.000000e+00
0.000000e+00
0.000000e+00
0.000000e+00
0.000000e+00
0.000000e+00
0.000000e+00
0.000000e+00
0.000000e+00
0.000000e+00
0.000000e+00
0.000000e+00
0.000000e+00
0.000000e+00
0.000000e+00
0.000000e+00
0.000000e+00
0.000000e+00
0.000000e+00
0.000000e+00
0.000000e+00
0.000000e+00
0.000000e+00
0.000000e+00
0.000000e+00
0.000000e+00
0.000000e+00
0.000000e+00
0.000000e+00
0.000000e+00
0.000000e+00
0.000000e+00
0.000000e+00
0.000000e+00
0.000000e+00
0.000000e+00
0.000000e+00
0.000000e+00
0.000000e+00
0.000000e+00
0.000000e+00
0.000000e+00
0.000000e+00
0.000000e+00
0.000000e+00
0.000000e+00
0.000000e+00
0.000000e+00
0.000000e+00
0.000000e+00
0.000000e+00
0.000000e+00
0.000000e+00
0.000000e+00
0.000000e+00
0.000000e+00
0.000000e+00
0.000000e+00
0.000000e+00
0.000000e+00
0.000000e+00
0.000000e+00
0.000000e+00
0.000000e+00
0.000000e+00
0.000000e+00
0.000000e+00
0.000000e+00
0.000000e+00
0.000000e+00
0.000000e+00
0.000000e+00
0.000000e+00
0.000000e+00
0.000000e+00
0.000000e+00
0.000000e+00
0.000000e+00
0.000000e+00
0.000000e+00
0.000000e+00
0.000000e+00
0.000000e+00
0.000000e+00
0.000000e+00
0.000000e+00
0.000000e+00
0.000000e+00
0.000000e+00
0.000000e+00
0.000000e+00
0.000000e+00
0.000000e+00
0.000000e+00
0.000000e+00
0.000000e+00
0.000000e+00
0.000000e+00
0.000000e+00
0.000000e+00
0.000000e+00
0.000000e+00
0.000000e+00
0.000000e+00
0.000000e+00
-0.000000e+00
-0.000000e+00
-0.000000e+00
-0.000000e+00
-0.000000e+00
-0.000000e+00
3.951571e-19
-2.766100e-18
2.082467e-18
-9.089700e-20
-4.179766e-18
-8.663792e-19
2.416391e-18
2.578590e-19
1.793992e-18
-1.484016e-18
-2.249020e-18
-5.253776e-19
1.909380e-18
-1.270536e-18
4.132212e-18
-7.431019e-19
1.258638e-18
-3.120889e-18
3.624877e-19
4.733770e-18
-2.664903e-18
-6.307513e-19
1.747706e-18
1.664343e-18
-2.373046e-18
-2.398896e-18
3.644665e-18
4.348978e-18
6.850600e-20
-7.551075e-19
2.135495e-18
4.542930e-18
1.361674e-19
4.364301e-18
1.419136e-18
-2.115780e-18
8.673690e-19
1.176758e-18
1.045381e-18
-1.050879e-19
-3.760256e-18
3.295152e-19
3.329096e-18
-9.234663e-19
-1.437991e-18
-2.393138e-18
-1.810037e-18
3.167156e-18
1.199084e-18
2.007573e-18
-2.784385e-18
1.293362e-18
-4.703838e-18
-3.636853e-18
1.614516e-18
-4.731111e-18
4.792239e-19
9.246199e-19
7.494512e-19
-8.543859e-19
7.453144e-19
1.490429e-18
1.031055e-17
1.485779e-17
1.243947e-17
-6.514574e-18
-5.879429e-18
-2.122677e-17
2.024654e-17
1.904048e-17
4.082473e-17
3.797606e-17
2.803946e-17
-6.192883e-20
4.510106e-18
2.638092e-17
-2.416060e-17
-8.312481e-18
1.310822e-18
1.191733e-17
-5.179919e-18
2.737078e-17
-2.152609e-17
-2.209733e-17
-1.396492e-17
9.801014e-18
-7.265407e-18
1.909980e-17
3.701268e-17
1.439522e-17
-4.293815e-18
-2.681905e-17
-2.452069e-17
-8.640861e-18
-2.433290e-17
2.880660e-18
-3.185717e-18
-1.067647e-17
-1.646419e-18
2.285503e-18
2.124215e-17
1.627762e-17
7.486091e-17
7.127155e-17
1.441418e-16
3.156204e-16
7.612634e-16
1.962847e-15
5.007664e-15
1.275294e-14
3.161451e-14
7.677961e-14
1.825342e-13
4.255985e-13
9.739986e-13
2.187885e-12
4.823669e-12
1.043856e-11
2.217354e-11
4.623652e-11
9.464853e-11
1.902139e-10
3.753113e-10
7.270772e-10
1.383009e-09
2.583075e-09
4.737210e-09
8.530613e-09
1.508340e-08
2.618535e-08
4.462969e-08
7.467060e-08
0.000000e+00
0.000000e+00
-0.000000e+00
-0.000000e+00
-0.000000e+00
-0.000000e+00
-0.000000e+00
3.951571e-19
-5.927357e-19
1.778207e-18
7.903142e-19
-4.164934e-18
-2.280046e-18
5.684329e-18
1.580628e-18
-2.141795e-18
-1.059195e-18
-1.647168e-18
3.473138e-18
-1.541714e-18
-2.948863e-18
-1.466376e-18
-1.188830e-18
-2.499037e-19
-7.159215e-19
1.050624e-18
-3.108179e-19
-1.129921e-18
-4.955105e-19
1.166480e-18
3.671948e-19
-3.355834e-18
-7.602581e-19
-1.335101e-18
5.316550e-19
2.620430e-18
1.400238e-18
-2.107697e-18
-7.647374e-19
-3.314508e-18
1.092347e-18
4.323399e-18
3.989923e-18
8.413603e-19
1.565596e-18
-3.045151e-18
5.722111e-19
1.457743e-18
-1.181964e-18
2.392033e-18
3.917556e-18
1.081032e-18
-4.083444e-18
8.926678e-19
-3.548044e-19
-9.489650e-19
4.596145e-19
-3.445765e-18
2.913272e-19
-2.235219e-18
-3.040843e-18
2.163806e-18
4.020276e-19
1.636669e-18
2.947220e-19
-3.211677e-19
-4.488363e-18
-8.535025e-19
-3.844575e-18
9.472033e-18
4.803934e-18
8.632550e-18
1.942509e-17
-1.569914e-18
-7.703397e-18
-4.569550e-18
-9.289231e-18
-3.764707e-17
2.846938e-17
2.618809e-17
1.421353e-17
1.283057e-17
3.900097e-18
2.614317e-17
1.958743e-17
6.963064e-18
-7.432375e-18
-1.563133e-17
6.167687e-19
-2.221443e-17
-2.535431e-17
-1.535134e-17
-1.101892e-19
1.343446e-17
1.751386e-17
1.619282e-19
1.981138e-17
2.293815e-17
1.308690e-17
8.192951e-19
1.161389e-17
1.243585e-17
1.127192e-17
-1.131903e-17
-7.621847e-18
2.988820e-18
-7.260541e-18
-2.143983e-17
2.969157e-18
-3.238447e-17
1.887903e-17
7.398137e-17
1.270242e-16
2.803965e-16
7.381716e-16
2.001041e-15
5.007171e-15
1.270961e-14
3.148582e-14
7.637414e-14
1.816656e-13
4.236951e-13
9.697473e-13
2.178353e-12
4.802834e-12
1.039385e-11
2.207967e-11
4.604378e-11
9.426154e-11
1.894548e-10
3.738561e-10
7.243510e-10
1.378014e-09
2.574117e-09
4.721464e-09
8.503457e-09
1.503738e-08
2.610863e-08
4.450376e-08
7.446695e-08
0.000000e+00
0.000000e+00
-0.000000e+00
-0.000000e+00
-0.000000e+00
-0.000000e+00
3.951571e-19
-7.903142e-19
3.860674e-18
3.465517e-18
1.669620e-19
-1.459115e-18
1.018509e-18
1.808823e-18
-3.236369e-18
-2.306852e-18
-5.389186e-18
-2.049945e-18
1.842022e-18
-2.068195e-18
-2.390579e-18
2.868085e-18
1.190351e-18
1.120886e-18
2.665746e-18
3.300521e-18
-3.529972e-19
-4.009580e-18
-5.929693e-18
3.933304e-18
2.466719e-18
2.774320e-18
2.733928e-18
5.584901e-18
3.222058e-18
-2.610998e-18
-1.764448e-18
-9.355178e-19
3.859939e-18
3.837747e-18
2.155966e-18
-1.554788e-18
2.418748e-19
-2.019009e-18
8.483620e-19
3.674484e-18
5.930178e-18
1.749034e-18
2.719379e-18
2.368848e-18
-4.300794e-18
-2.057423e-19
-4.418868e-18
-2.707307e-18
3.059113e-18
3.446663e-18
-2.988645e-18
-3.045530e-18
-2.097958e-18
-3.395988e-18
-1.768685e-18
-2.157668e-18
-4.904775e-18
4.419743e-18
6.206022e-18
5.766834e-18
1.526553e-18
-3.421844e-18
-4.320251e-19
-4.384414e-18
-5.326548e-18
-3.462969e-18
-1.147175e-18
3.747511e-18
1.816730e-18
-1.247595e-17
-2.850687e-17
-4.838397e-17
-2.165972e-17
-1.626468e-17
6.001778e-18
4.114448e-17
-1.342940e-17
1.707128e-17
2.965581e-17
4.622209e-17
1.629379e-17
1.021703e-17
1.211449e-17
-1.036457e-17
6.565748e-18
4.230138e-18
-1.072602e-17
5.661142e-18
2.764619e-17
-1.136929e-17
1.695889e-17
-8.818807e-18
-9.041897e-18
-1.580834e-18
1.300127e-17
-2.199550e-17
2.085328e-17
1.767503e-17
-1.776393e-17
-1.036283e-17
-2.017696e-17
-5.245136e-18
-1.991230e-18
6.059038e-18
9.004642e-18
2.766494e-17
1.134575e-16
2.755831e-16
7.534222e-16
1.957284e-15
5.033303e-15
1.264251e-14
3.123548e-14
7.572847e-14
1.801866e-13
4.203612e-13
9.623046e-13
2.161884e-12
4.766897e-12
1.031708e-11
2.191898e-11
4.571461e-11
9.360232e-11
1.881642e-10
3.713862e-10
7.197290e-10
1.369552e-09
2.558947e-09
4.694807e-09
8.457489e-09
1.495950e-08
2.597886e-08
4.429091e-08
7.412317e-08
0.000000e+00
0.000000e+00
-0.000000e+00
-0.000000e+00
-0.000000e+00
-0.000000e+00
-1.185471e-18
-1.778207e-18
5.018387e-19
-3.951571e-19
-3.282770e-18
-2.690035e-18
7.754822e-19
-2.369990e-18
-3.052670e-18
3.484159e-18
3.250249e-18
9.608108e-19
5.714947e-19
3.151698e-18
4.102155e-18
6.475930e-19
-2.586798e-18
5.816246e-19
-5.517370e-19
-1.857188e-18
6.896002e-19
-7.727373e-19
-3.231563e-18
3.073232e-18
5.820715e-18
-3.184482e-19
2.391011e-18
2.954859e-18
1.247173e-18
-3.827433e-18
-4.076988e-18
1.212710e-18
-2.884402e-19
1.684053e-18
6.744768e-19
8.375291e-19
-4.986617e-18
2.239175e-19
-6.107090e-19
-1.911921e-18
-1.314699e-18
-2.303951e-18
-8.095173e-19
2.938465e-18
1.999239e-18
2.242348e-18
-1.377618e-18
1.645922e-18
3.141912e-18
3.599746e-18
2.483569e-19
6.128193e-19
-4.822868e-18
-1.554374e-18
-1.206187e-19
1.447245e-18
6.106127e-18
8.342931e-18
1.067444e-18
7.945266e-18
7.708430e-18
-9.098378e-18
-3.078656e-18
9.342590e-18
1.107405e-17
-1.006679e-17
6.154848e-18
3.687034e-18
1.832662e-17
-1.833068e-18
-1.302898e-17
-4.374109e-17
-3.191251e-17
-4.249411e-17
-9.262727e-18
-2.371490e-17
2.081996e-18
1.638170e-17
1.577230e-17
3.459976e-17
1.549426e-18
-5.789679e-18
9.360794e-18
2.312947e-17
2.648810e-17
6.589749e-19
-1.851817e-18
1.103695e-17
-1.563720e-17
-3.773582e-18
-8.954971e-18
-9.873053e-18
4.952263e-18
7.120042e-19
-1.221398e-19
1.772131e-17
-3.189091e-17
-1.215942e-17
4.998820e-18
2.624865e-17
9.700785e-18
2.516163e-18
6.901922e-18
3.607246e-18
-1.244322e-17
7.077278e-18
6.436312e-17
2.632606e-16
7.362646e-16
1.937169e-15
4.969052e-15
1.250277e-14
3.087270e-14
7.483504e-14
1.780461e-13
4.155333e-13
9.514428e-13
2.137926e-12
4.714821e-12
1.020602e-11
2.168707e-11
4.524051e-11
9.265397e-11
1.863088e-10
3.678361e-10
7.130839e-10
1.357378e-09
2.537102e-09
4.656381e-09
8.391161e-09
1.484704e-08
2.579140e-08
4.398352e-08
7.362706e-08
0.000000e+00
0.000000e+00
-0.000000e+00
-0.000000e+00
-0.000000e+00
-0.000000e+00
-5.927357e-19
9.878928e-19
-4.362513e-18
-5.836460e-18
-1.732758e-18
-1.580628e-18
-4.544850e-20
-3.357883e-18
8.228359e-19
2.245619e-18
-1.634516e-18
5.327126e-18
-2.904785e-18
1.447926e-18
1.485018e-18
2.474472e-18
2.063970e-19
-2.238017e-20
-1.050926e-18
3.185353e-19
1.535274e-19
3.910869e-18
8.446847e-19
4.251063e-18
4.952511e-18
3.051649e-18
8.292986e-19
-1.476622e-18
3.682130e-18
-2.767742e-18
-3.030167e-18
-2.240880e-18
-1.642267e-18
-1.124593e-18
-3.091988e-18
-4.054487e-18
1.023421e-18
3.534200e-18
-3.217555e-18
-5.124007e-18
-2.706263e-18
-3.914212e-18
-3.543239e-18
-1.460710e-18
-4.433523e-19
-4.910188e-19
-1.759773e-18
1.466719e-18
5.190307e-19
-3.361143e-19
2.856534e-18
4.159890e-18
4.194312e-18
4.596938e-18
6.578983e-18
5.087169e-18
1.069184e-19
3.254590e-18
-2.400282e-18
2.574189e-18
3.911611e-18
1.323220e-18
3.565185e-18
9.123063e-18
-2.689003e-18
-1.066350e-17
1.705284e-18
1.820855e-17
2.822604e-17
9.983786e-18
-8.432877e-18
-1.520342e-17
-1.820447e-17
-1.691807e-17
9.009936e-19
-8.611502e-18
2.768177e-17
2.291233e-17
3.411491e-17
3.326266e-17
-1.411707e-17
4.591477e-18
-7.968770e-18
6.589376e-18
2.802309e-18
-1.457180e-19
2.132841e-18
-1.055606e-17
-1.394348e-17
-8.036157e-18
-2.083511e-17
-2.154485e-17
-5.904547e-19
-1.703112e-17
-1.754095e-17
-5.967160e-19
1.037766e-17
-1.909640e-17
1.543288e-17
4.564218e-18
4.798017e-17
1.633831e-17
1.783865e-17
2.813340e-17
3.649099e-18
1.924221e-17
7.129401e-17
2.385296e-16
7.045793e-16
1.914461e-15
4.886188e-15
1.230084e-14
3.036063e-14
7.362671e-14
1.752135e-13
4.090811e-13
9.370180e-13
2.106119e-12
4.645877e-12
1.005946e-11
2.138169e-11
4.461715e-11
9.140822e-11
1.838723e-10
3.631723e-10
7.043463e-10
1.341350e-09
2.508298e-09
4.605632e-09
8.303436e-09
1.469814e-08
2.554305e-08
4.357625e-08
7.297020e-08
0.000000e+00
0.000000e+00
-0.000000e+00
-0.000000e+00
-0.000000e+00
1.975786e-19
2.766100e-18
-5.152827e-18
-2.477624e-18
2.720651e-18
-3.161257e-18
-3.860674e-18
-4.437625e-18
1.337601e-18
1.757659e-18
9.851687e-19
1.162058e-18
-5.777967e-18
-1.634434e-20
-3.361351e-18
-2.020985e-18
-3.930343e-18
-4.362856e-18
-2.690017e-18
-4.158973e-18
1.346780e-18
3.157404e-18
-7.337286e-19
4.692545e-19
-2.197058e-18
8.782061e-19
-2.400677e-19
-1.882861e-18
-2.277676e-19
-2.974289e-18
-1.365804e-18
-4.535923e-18
8.606943e-19
-2.024225e-18
8.570369e-19
-3.930951e-18
3.033806e-18
3.153812e-18
-2.559218e-18
1.898159e-18
-3.559812e-18
-3.480651e-18
2.447347e-18
-3.871021e-18
1.678164e-18
-2.142813e-18
9.895533e-19
3.909550e-18
3.044689e-18
3.121741e-18
1.600772e-18
-7.502879e-19
6.030424e-19
-2.224740e-18
-1.875644e-18
9.635979e-19
-7.908522e-18
-2.560222e-18
-2.881912e-18
-1.848992e-17
-1.613398e-17
2.078603e-17
3.123907e-17
2.687523e-18
-1.352664e-17
-1.824291e-17
1.173994e-17
2.995985e-18
2.908512e-17
1.603728e-17
1.018173e-17
-4.757351e-18
-6.511727e-18
-1.955690e-17
-1.386200e-17
7.936355e-18
-9.428280e-18
4.516591e-18
3.635659e-18
-2.625870e-18
1.231088e-18
-1.766506e-17
5.954118e-18
1.340291e-17
-2.789300e-18
-8.681461e-19
-1.396340e-18
9.295310e-19
1.808067e-17
-3.735804e-18
2.186598e-18
-6.086508e-18
9.751219e-18
-2.688114e-18
-3.578073e-17
-1.180521e-17
-1.983715e-17
-1.068954e-17
-3.596227e-17
-3.678938e-17
1.651835e-18
2.689197e-17
4.740732e-17
5.612893e-17
1.585180e-17
2.273946e-17
1.888076e-17
5.771257e-17
2.037083e-16
6.605673e-16
1.853791e-15
4.764241e-15
1.200450e-14
2.970868e-14
7.212710e-14
1.716837e-13
4.010336e-13
9.189307e-13
2.066278e-12
4.559803e-12
9.876921e-12
2.100194e-11
4.384298e-11
8.986221e-11
1.808487e-10
3.573815e-10
6.934850e-10
1.321395e-09
2.472370e-09
4.542215e-09
8.193623e-09
1.451150e-08
2.523149e-08
4.306526e-08
7.214649e-08
0.000000e+00
0.000000e+00
-0.000000e+00
-0.000000e+00
-0.000000e+00
-5.927357e-19
8.969958e-19
-3.556414e-18
4.712221e-19
4.513690e-18
7.439131e-19
1.276368e-18
1.276368e-18
1.727996e-18
-7.112577e-19
2.466051e-18
-5.488397e-18
-9.326510e-19
-2.137768e-18
2.070610e-19
-4.688545e-18
-3.854506e-18
-2.564429e-18
3.623540e-18
3.128144e-18
-2.394108e-18
-4.161122e-18
-3.406079e-18
-4.204551e-18
-4.530236e-18
-3.162331e-18
-5.522010e-18
-3.090743e-19
-6.779225e-19
4.279492e-18
1.038692e-18
3.022282e-19
2.517960e-18
2.539538e-18
-5.213024e-19
3.559814e-18
4.514792e-18
2.208498e-18
-2.628746e-18
2.961375e-18
-1.340774e-18
4.555632e-18
2.319788e-18
1.683566e-18
2.693683e-18
2.327363e-19
3.783950e-19
4.281138e-18
-2.611941e-19
-4.286718e-19
2.371559e-18
3.310161e-18
8.041028e-20
-3.723909e-18
-6.635912e-18
-5.234408e-18
-8.452313e-18
-2.264727e-17
-2.586655e-17
-2.493655e-17
-2.039343e-17
4.244599e-18
4.613398e-18
-3.500037e-18
1.146814e-17
7.544853e-18
1.797896e-17
9.789070e-18
3.983916e-17
2.424882e-17
-3.010422e-18
-4.158675e-17
7.020357e-18
1.869132e-17
9.395721e-18
1.993106e-18
-2.301804e-17
-3.413334e-17
-2.058667e-17
1.064417e-17
-1.395441e-17
5.147615e-18
-5.897855e-18
-3.515156e-19
6.408293e-18
-4.585645e-18
-9.619155e-18
-1.342325e-17
2.016548e-17
-9.067765e-18
5.957633e-18
7.623116e-18
9.639735e-18
-1.672657e-19
-4.029627e-18
-1.069560e-17
-7.929655e-18
6.538159e-19
-2.031984e-17
-6.603791e-17
-5.198799e-17
-7.230943e-18
4.617260e-17
5.826831e-17
5.400985e-17
3.528820e-17
4.509561e-17
5.003258e-17
2.034891e-16
6.162392e-16
1.766745e-15
4.628439e-15
1.169265e-14
2.891041e-14
7.026672e-14
1.674247e-13
3.913076e-13
8.971473e-13
2.018381e-12
4.456536e-12
9.658349e-12
2.054815e-11
4.291897e-11
8.801796e-11
1.772413e-10
3.504674e-10
6.805002e-10
1.297498e-09
2.429262e-09
4.465970e-09
8.061353e-09
1.428634e-08
2.485527e-08
4.244798e-08
7.115182e-08
0.000000e+00
0.000000e+00
-0.000000e+00
-0.000000e+00
-0.000000e+00
-2.173364e-18
3.951571e-18
3.161257e-18
1.975786e-19
-4.453410e-18
-2.477624e-18
8.051462e-19
2.032256e-18
9.521038e-19
-4.317749e-18
1.064902e-18
-4.188298e-19
-2.797176e-18
-2.440564e-19
-1.517235e-18
-3.029095e-18
-1.894020e-18
2.821182e-18
4.383741e-18
-4.983688e-18
-2.459873e-18
-4.308280e-18
5.940103e-18
-1.985333e-18
-2.662821e-18
-9.120768e-19
4.975771e-19
-2.765737e-18
1.314360e-18
2.932005e-19
2.627138e-18
-9.399043e-19
5.626122e-18
-2.293985e-19
2.849818e-18
-1.135343e-18
7.895546e-19
-4.648768e-18
-1.051206e-18
-1.708933e-19
5.598162e-18
9.826691e-20
2.904259e-18
-8.237995e-19
-5.912971e-18
1.429855e-18
-1.945723e-18
-6.499806e-18
-3.081187e-18
-1.808905e-18
-5.126215e-18
-5.058907e-18
-5.892828e-19
-5.028608e-18
-8.221947e-18
-9.468237e-18
-1.582919e-17
-5.620537e-18
1.667744e-17
5.775869e-18
-3.063504e-17
-1.639103e-17
-5.179141e-18
-1.163335e-17
-1.285205e-17
9.815764e-18
2.287352e-18
-3.462379e-18
1.674151e-17
1.323849e-17
5.982657e-18
-2.296006e-17
9.600859e-19
1.024740e-17
8.428257e-18
1.570170e-17
-1.128873e-17
-3.650441e-17
-3.065500e-17
-7.510980e-18
2.977932e-17
1.851162e-17
-2.923216e-17
-2.489174e-17
-1.417873e-17
-6.036081e-18
7.518849e-18
5.321957e-18
-1.675723e-17
5.599995e-18
1.150230e-17
1.865763e-17
-4.930340e-18
4.747589e-18
1.182885e-17
3.701249e-17
1.735297e-17
3.018928e-17
1.015173e-17
-1.956119e-17
-6.764898e-17
-4.170329e-17
-1.715420e-18
4.037814e-17
4.451034e-17
5.311638e-17
2.411071e-17
9.919741e-17
2.127755e-16
6.313650e-16
1.708366e-15
4.424361e-15
1.127061e-14
2.801404e-14
6.816432e-14
1.624385e-13
3.799170e-13
8.717402e-13
1.962639e-12
4.336443e-12
9.404560e-12
2.002176e-11
4.184822e-11
8.588152e-11
1.730613e-10
3.424493e-10
6.654218e-10
1.269699e-09
2.379016e-09
4.376918e-09
7.906564e-09
1.402242e-08
2.441376e-08
4.172315e-08
6.998386e-08
0.000000e+00
0.000000e+00
-0.000000e+00
3.951571e-19
-1.975786e-19
9.089700e-20
2.173364e-18
-3.739160e-18
-1.565796e-18
-2.127916e-18
-7.903142e-19
-6.410419e-19
4.120029e-18
3.089679e-18
-1.334476e-18
-2.741734e-18
-5.317667e-18
8.663946e-19
1.057796e-18
4.711190e-18
5.310376e-18
4.684933e-18
1.462676e-18
9.950161e-19
-8.324814e-19
2.706694e-18
1.158522e-18
-3.537677e-18
2.435983e-18
-1.573406e-18
2.615466e-19
4.887267e-18
4.184201e-18
2.200026e-18
1.250894e-18
-1.356908e-18
3.386299e-19
1.561706e-18
3.101056e-18
2.585368e-19
-5.945533e-19
-8.491527e-19
1.029701e-18
-1.370810e-18
1.381385e-20
-8.005772e-21
4.374382e-20
-5.106865e-20
7.333609e-19
-2.620268e-18
3.124421e-18
-1.677724e-18
8.440108e-19
-1.500795e-18
-1.775783e-18
2.800622e-18
7.498247e-19
-9.625428e-19
-1.814500e-18
5.866263e-19
3.213680e-18
8.673771e-18
2.024998e-17
5.786792e-18
2.937090e-17
-9.102653e-19
-5.793815e-18
-1.797750e-17
-8.380723e-20
-2.261167e-17
6.727282e-19
7.399446e-18
8.126085e-18
-9.828455e-18
-4.615161e-18
9.546805e-18
-1.453490e-17
-2.111543e-18
1.247000e-17
9.338450e-18
-2.791817e-20
2.608791e-18
-2.096660e-17
-6.716331e-18
-1.115342e-17
5.366188e-18
5.393192e-18
1.810249e-18
2.277804e-19
5.835670e-18
8.629125e-18
-2.512556e-17
8.845209e-18
-6.087845e-18
1.841174e-18
2.620600e-18
2.647342e-18
1.005978e-17
-9.107885e-18
1.574118e-17
-4.158545e-18
1.711385e-17
6.268760e-17
3.576146e-17
-9.008402e-18
-4.552116e-17
-3.052450e-17
-5.930159e-18
4.460695e-18
3.784410e-17
2.921767e-17
6.472533e-17
9.045468e-17
1.905066e-16
6.101232e-16
1.643454e-15
4.236645e-15
1.080099e-14
2.695452e-14
6.568527e-14
1.567584e-13
3.669631e-13
8.428275e-13
1.899258e-12
4.200105e-12
9.116707e-12
1.942541e-11
4.063564e-11
8.346240e-11
1.683265e-10
3.333589e-10
6.483041e-10
1.238087e-09
2.321766e-09
4.275243e-09
7.729487e-09
1.371997e-08
2.390709e-08
4.089062e-08
6.864196e-08
0.000000e+00
0.000000e+00
-0.000000e+00
-1.185471e-18
9.878928e-19
1.383050e-18
-2.884755e-19
1.185471e-18
-1.109406e-18
-4.179766e-18
-1.688672e-19
2.331753e-18
3.181938e-18
-3.170240e-18
-7.058013e-19
1.082809e-18
5.040805e-18
-2.228800e-18
-5.200868e-18
-1.486190e-18
-6.453578e-19
4.187716e-18
2.509760e-18
2.627345e-18
3.836054e-18
1.511615e-18
-3.619074e-18
4.535589e-18
5.937118e-18
2.625161e-18
3.441297e-18
-6.738865e-20
3.371942e-18
-3.335797e-19
-3.929238e-18
1.333178e-18
-1.222916e-18
-4.059790e-18
-4.679222e-18
-2.451255e-18
6.091653e-19
1.241460e-18
2.008235e-18
3.898648e-18
-4.855108e-18
2.540485e-18
2.419470e-19
2.863101e-19
-2.792706e-18
-2.243549e-18
-3.255061e-18
-1.580915e-18
1.447265e-18
1.102333e-18
-7.369311e-19
-3.212676e-19
1.175946e-18
-1.547111e-18
-4.054452e-18
1.459738e-17
1.783876e-17
2.516384e-17
2.050947e-17
1.158684e-17
1.585193e-17
1.513875e-17
6.652792e-18
-1.530696e-17
-1.310298e-17
-1.051773e-17
-1.516238e-17
-1.392612e-17
1.061312e-17
-1.309268e-18
-9.432262e-18
-1.216615e-17
-1.331161e-17
2.787804e-18
-6.914971e-18
-3.566739e-18
3.446118e-18
-5.466543e-18
-9.727848e-18
8.730776e-18
1.700253e-17
6.075062e-18
4.938022e-18
1.813982e-17
1.802713e-17
-7.150122e-18
2.237982e-17
1.954211e-17
2.708513e-17