# vtk DataFile Version 3.0
Resultado Projeto 3
ASCII
DATASET STRUCTURED_GRID
DIMENSIONS 140 60 1 
POINTS 8400 double
0.000000e+00 0.000000e+00 0.000000e+00
2.517986e-02 0.000000e+00 0.000000e+00
5.035971e-02 0.000000e+00 0.000000e+00
7.553957e-02 0.000000e+00 0.000000e+00
1.007194e-01 0.000000e+00 0.000000e+00
1.258993e-01 0.000000e+00 0.000000e+00
1.510791e-01 0.000000e+00 0.000000e+00
1.762590e-01 0.000000e+00 0.000000e+00
2.014388e-01 0.000000e+00 0.000000e+00
2.266187e-01 0.000000e+00 0.000000e+00
2.517986e-01 0.000000e+00 0.000000e+00
2.769784e-01 0.000000e+00 0.000000e+00
3.021583e-01 0.000000e+00 0.000000e+00
3.273381e-01 0.000000e+00 0.000000e+00
3.525180e-01 0.000000e+00 0.000000e+00
3.776978e-01 0.000000e+00 0.000000e+00
4.028777e-01 0.000000e+00 0.000000e+00
4.280576e-01 0.000000e+00 0.000000e+00
4.532374e-01 0.000000e+00 0.000000e+00
4.784173e-01 0.000000e+00 0.000000e+00
5.035971e-01 0.000000e+00 0.000000e+00
5.287770e-01 0.000000e+00 0.000000e+00
5.539568e-01 0.000000e+00 0.000000e+00
5.791367e-01 0.000000e+00 0.000000e+00
6.043165e-01 0.000000e+00 0.000000e+00
6.294964e-01 0.000000e+00 0.000000e+00
6.546763e-01 0.000000e+00 0.000000e+00
6.798561e-01 0.000000e+00 0.000000e+00
7.050360e-01 0.000000e+00 0.000000e+00
7.302158e-01 0.000000e+00 0.000000e+00
7.553957e-01 0.000000e+00 0.000000e+00
7.805755e-01 0.000000e+00 0.000000e+00
8.057554e-01 0.000000e+00 0.000000e+00
8.309353e-01 0.000000e+00 0.000000e+00
8.561151e-01 0.000000e+00 0.000000e+00
8.812950e-01 0.000000e+00 0.000000e+00
9.064748e-01 0.000000e+00 0.000000e+00
9.316547e-01 0.000000e+00 0.000000e+00
9.568345e-01 0.000000e+00 0.000000e+00
9.820144e-01 0.000000e+00 0.000000e+00
1.007194e+00 0.000000e+00 0.000000e+00
1.032374e+00 0.000000e+00 0.000000e+00
1.057554e+00 0.000000e+00 0.000000e+00
1.082734e+00 0.000000e+00 0.000000e+00
1.107914e+00 0.000000e+00 0.000000e+00
1.133094e+00 0.000000e+00 0.000000e+00
1.158273e+00 0.000000e+00 0.000000e+00
1.183453e+00 0.000000e+00 0.000000e+00
1.208633e+00 0.000000e+00 0.000000e+00
1.233813e+00 0.000000e+00 0.000000e+00
1.258993e+00 0.000000e+00 0.000000e+00
1.284173e+00 0.000000e+00 0.000000e+00
1.309353e+00 0.000000e+00 0.000000e+00
1.334532e+00 0.000000e+00 0.000000e+00
1.359712e+00 0.000000e+00 0.000000e+00
1.384892e+00 0.000000e+00 0.000000e+00
1.410072e+00 0.000000e+00 0.000000e+00
1.435252e+00 0.000000e+00 0.000000e+00
1.460432e+00 0.000000e+00 0.000000e+00
1.485612e+00 0.000000e+00 0.000000e+00
1.510791e+00 0.000000e+00 0.000000e+00
1.535971e+00 0.000000e+00 0.000000e+00
1.561151e+00 0.000000e+00 0.000000e+00
1.586331e+00 0.000000e+00 0.000000e+00
1.611511e+00 0.000000e+00 0.000000e+00
1.636691e+00 0.000000e+00 0.000000e+00
1.661871e+00 0.000000e+00 0.000000e+00
1.687050e+00 0.000000e+00 0.000000e+00
1.712230e+00 0.000000e+00 0.000000e+00
1.737410e+00 0.000000e+00 0.000000e+00
1.762590e+00 0.000000e+00 0.000000e+00
1.787770e+00 0.000000e+00 0.000000e+00
1.812950e+00 0.000000e+00 0.000000e+00
1.838129e+00 0.000000e+00 0.000000e+00
1.863309e+00 0.000000e+00 0.000000e+00
1.888489e+00 0.000000e+00 0.000000e+00
1.913669e+00 0.000000e+00 0.000000e+00
1.938849e+00 0.000000e+00 0.000000e+00
1.964029e+00 0.000000e+00 0.000000e+00
1.989209e+00 0.000000e+00 0.000000e+00
2.014388e+00 0.000000e+00 0.000000e+00
2.039568e+00 0.000000e+00 0.000000e+00
2.064748e+00 0.000000e+00 0.000000e+00
2.089928e+00 0.000000e+00 0.000000e+00
2.115108e+00 0.000000e+00 0.000000e+00
2.140288e+00 0.000000e+00 0.000000e+00
2.165468e+00 0.000000e+00 0.000000e+00
2.190647e+00 0.000000e+00 0.000000e+00
2.215827e+00 0.000000e+00 0.000000e+00
2.241007e+00 0.000000e+00 0.000000e+00
2.266187e+00 0.000000e+00 0.000000e+00
2.291367e+00 0.000000e+00 0.000000e+00
2.316547e+00 0.000000e+00 0.000000e+00
2.341727e+00 0.000000e+00 0.000000e+00
2.366906e+00 0.000000e+00 0.000000e+00
2.392086e+00 0.000000e+00 0.000000e+00
2.417266e+00 0.000000e+00 0.000000e+00
2.442446e+00 0.000000e+00 0.000000e+00
2.467626e+00 0.000000e+00 0.000000e+00
2.492806e+00 0.000000e+00 0.000000e+00
2.517986e+00 0.000000e+00 0.000000e+00
2.543165e+00 0.000000e+00 0.000000e+00
2.568345e+00 0.000000e+00 0.000000e+00
2.593525e+00 0.000000e+00 0.000000e+00
2.618705e+00 0.000000e+00 0.000000e+00
2.643885e+00 0.000000e+00 0.000000e+00
2.669065e+00 0.000000e+00 0.000000e+00
2.694245e+00 0.000000e+00 0.000000e+00
2.719424e+00 0.000000e+00 0.000000e+00
2.744604e+00 0.000000e+00 0.000000e+00
2.769784e+00 0.000000e+00 0.000000e+00
2.794964e+00 0.000000e+00 0.000000e+00
2.820144e+00 0.000000e+00 0.000000e+00
2.845324e+00 0.000000e+00 0.000000e+00
2.870504e+00 0.000000e+00 0.000000e+00
2.895683e+00 0.000000e+00 0.000000e+00
2.920863e+00 0.000000e+00 0.000000e+00
2.946043e+00 0.000000e+00 0.000000e+00
2.971223e+00 0.000000e+00 0.000000e+00
2.996403e+00 0.000000e+00 0.000000e+00
3.021583e+00 0.000000e+00 0.000000e+00
3.046763e+00 0.000000e+00 0.000000e+00
3.071942e+00 0.000000e+00 0.000000e+00
3.097122e+00 0.000000e+00 0.000000e+00
3.122302e+00 0.000000e+00 0.000000e+00
3.147482e+00 0.000000e+00 0.000000e+00
3.172662e+00 0.000000e+00 0.000000e+00
3.197842e+00 0.000000e+00 0.000000e+00
3.223022e+00 0.000000e+00 0.000000e+00
3.248201e+00 0.000000e+00 0.000000e+00
3.273381e+00 0.000000e+00 0.000000e+00
3.298561e+00 0.000000e+00 0.000000e+00
3.323741e+00 0.000000e+00 0.000000e+00
3.348921e+00 0.000000e+00 0.000000e+00
3.374101e+00 0.000000e+00 0.000000e+00
3.399281e+00 0.000000e+00 0.000000e+00
3.424460e+00 0.000000e+00 0.000000e+00
3.449640e+00 0.000000e+00 0.000000e+00
3.474820e+00 0.000000e+00 0.000000e+00
3.500000e+00 0.000000e+00 0.000000e+00
0.000000e+00 1.694915e-02 0.000000e+00
2.517986e-02 1.694915e-02 0.000000e+00
5.035971e-02 1.694915e-02 0.000000e+00
7.553957e-02 1.694915e-02 0.000000e+00
1.007194e-01 1.694915e-02 0.000000e+00
1.258993e-01 1.694915e-02 0.000000e+00
1.510791e-01 1.694915e-02 0.000000e+00
1.762590e-01 1.694915e-02 0.000000e+00
2.014388e-01 1.694915e-02 0.000000e+00
2.266187e-01 1.694915e-02 0.000000e+00
2.517986e-01 1.694915e-02 0.000000e+00
2.769784e-01 1.694915e-02 0.000000e+00
3.021583e-01 1.694915e-02 0.000000e+00
3.273381e-01 1.694915e-02 0.000000e+00
3.525180e-01 1.694915e-02 0.000000e+00
3.776978e-01 1.694915e-02 0.000000e+00
4.028777e-01 1.694915e-02 0.000000e+00
4.280576e-01 1.694915e-02 0.000000e+00
4.532374e-01 1.694915e-02 0.000000e+00
4.784173e-01 1.694915e-02 0.000000e+00
5.035971e-01 1.694915e-02 0.000000e+00
5.287770e-01 1.694915e-02 0.000000e+00
5.539568e-01 1.694915e-02 0.000000e+00
5.791367e-01 1.694915e-02 0.000000e+00
6.043165e-01 1.694915e-02 0.000000e+00
6.294964e-01 1.694915e-02 0.000000e+00
6.546763e-01 1.694915e-02 0.000000e+00
6.798561e-01 1.694915e-02 0.000000e+00
7.050360e-01 1.694915e-02 0.000000e+00
7.302158e-01 1.694915e-02 0.000000e+00
7.553957e-01 1.694915e-02 0.000000e+00
7.805755e-01 1.694915e-02 0.000000e+00
8.057554e-01 1.694915e-02 0.000000e+00
8.309353e-01 1.694915e-02 0.000000e+00
8.561151e-01 1.694915e-02 0.000000e+00
8.812950e-01 1.694915e-02 0.000000e+00
9.064748e-01 1.694915e-02 0.000000e+00
9.316547e-01 1.694915e-02 0.000000e+00
9.568345e-01 1.694915e-02 0.000000e+00
9.820144e-01 1.694915e-02 0.000000e+00
1.007194e+00 1.694915e-02 0.000000e+00
1.032374e+00 1.694915e-02 0.000000e+00
1.057554e+00 1.694915e-02 0.000000e+00
1.082734e+00 1.694915e-02 0.000000e+00
1.107914e+00 1.694915e-02 0.000000e+00
1.133094e+00 1.694915e-02 0.000000e+00
1.158273e+00 1.694915e-02 0.000000e+00
1.183453e+00 1.694915e-02 0.000000e+00
1.208633e+00 1.694915e-02 0.000000e+00
1.233813e+00 1.694915e-02 0.000000e+00
1.258993e+00 1.694915e-02 0.000000e+00
1.284173e+00 1.694915e-02 0.000000e+00
1.309353e+00 1.694915e-02 0.000000e+00
1.334532e+00 1.694915e-02 0.000000e+00
1.359712e+00 1.694915e-02 0.000000e+00
1.384892e+00 1.694915e-02 0.000000e+00
1.410072e+00 1.694915e-02 0.000000e+00
1.435252e+00 1.694915e-02 0.000000e+00
1.460432e+00 1.694915e-02 0.000000e+00
1.485612e+00 1.694915e-02 0.000000e+00
1.510791e+00 1.694915e-02 0.000000e+00
1.535971e+00 1.694915e-02 0.000000e+00
1.561151e+00 1.694915e-02 0.000000e+00
1.586331e+00 1.694915e-02 0.000000e+00
1.611511e+00 1.694915e-02 0.000000e+00
1.636691e+00 1.694915e-02 0.000000e+00
1.661871e+00 1.694915e-02 0.000000e+00
1.687050e+00 1.694915e-02 0.000000e+00
1.712230e+00 1.694915e-02 0.000000e+00
1.737410e+00 1.694915e-02 0.000000e+00
1.762590e+00 1.694915e-02 0.000000e+00
1.787770e+00 1.694915e-02 0.000000e+00
1.812950e+00 1.694915e-02 0.000000e+00
1.838129e+00 1.694915e-02 0.000000e+00
1.863309e+00 1.694915e-02 0.000000e+00
1.888489e+00 1.694915e-02 0.000000e+00
1.913669e+00 1.694915e-02 0.000000e+00
1.938849e+00 1.694915e-02 0.000000e+00
1.964029e+00 1.694915e-02 0.000000e+00
1.989209e+00 1.694915e-02 0.000000e+00
2.014388e+00 1.694915e-02 0.000000e+00
2.039568e+00 1.694915e-02 0.000000e+00
2.064748e+00 1.694915e-02 0.000000e+00
2.089928e+00 1.694915e-02 0.000000e+00
2.115108e+00 1.694915e-02 0.000000e+00
2.140288e+00 1.694915e-02 0.000000e+00
2.165468e+00 1.694915e-02 0.000000e+00
2.190647e+00 1.694915e-02 0.000000e+00
2.215827e+00 1.694915e-02 0.000000e+00
2.241007e+00 1.694915e-02 0.000000e+00
2.266187e+00 1.694915e-02 0.000000e+00
2.291367e+00 1.694915e-02 0.000000e+00
2.316547e+00 1.694915e-02 0.000000e+00
2.341727e+00 1.694915e-02 0.000000e+00
2.366906e+00 1.694915e-02 0.000000e+00
2.392086e+00 1.694915e-02 0.000000e+00
2.417266e+00 1.694915e-02 0.000000e+00
2.442446e+00 1.694915e-02 0.000000e+00
2.467626e+00 1.694915e-02 0.000000e+00
2.492806e+00 1.694915e-02 0.000000e+00
2.517986e+00 1.694915e-02 0.000000e+00
2.543165e+00 1.694915e-02 0.000000e+00
2.568345e+00 1.694915e-02 0.000000e+00
2.593525e+00 1.694915e-02 0.000000e+00
2.618705e+00 1.694915e-02 0.000000e+00
2.643885e+00 1.694915e-02 0.000000e+00
2.669065e+00 1.694915e-02 0.000000e+00
2.694245e+00 1.694915e-02 0.000000e+00
2.719424e+00 1.694915e-02 0.000000e+00
2.744604e+00 1.694915e-02 0.000000e+00
2.769784e+00 1.694915e-02 0.000000e+00
2.794964e+00 1.694915e-02 0.000000e+00
2.820144e+00 1.694915e-02 0.000000e+00
[...]
POINT_DATA 8400
SCALARS RES_Cont double
LOOKUP_TABLE default
0.000000e+00
0.000000e+00
0.000000e+00
0.000000e+00
0.000000e+00
0.000000e+00
0.000000e+00
0.000000e+00
0.000000e+00
0.000000e+00
0.000000e+00
0.000000e+00
0.000000e+00
0.000000e+00
0.000000e+00
0.000000e+00
0.000000e+00
0.000000e+00
0.000000e+00
0.000000e+00
0.000000e+00
0.000000e+00
0.000000e+00
0.000000e+00
0.000000e+00
0.000000e+00
0.000000e+00
0.000000e+00
0.000000e+00
0.000000e+00
0.000000e+00
0.000000e+00
0.000000e+00
0.000000e+00
0.000000e+00
0.000000e+00
0.000000e+00
0.000000e+00
0.000000e+00
0.000000e+00
0.000000e+00
0.000000e+00
0.000000e+00
0.000000e+00
0.000000e+00
0.000000e+00
0.000000e+00
0.000000e+00
0.000000e+00
0.000000e+00
0.000000e+00
0.000000e+00
0.000000e+00
0.000000e+00
0.000000e+00
0.000000e+00
0.000000e+00
0.000000e+00
0.000000e+00
0.000000e+00
0.000000e+00
0.000000e+00
0.000000e+00
0.000000e+00
0.000000e+00
0.000000e+00
0.000000e+00
0.000000e+00
0.000000e+00
0.000000e+00
0.000000e+00
0.000000e+00
0.000000e+00
0.000000e+00
0.000000e+00
0.000000e+00
0.000000e+00
0.000000e+00
0.000000e+00
0.000000e+00
0.000000e+00
0.000000e+00
0.000000e+00
0.000000e+00
0.000000e+00
0.000000e+00
0.000000e+00
0.000000e+00
0.000000e+00
0.000000e+00
0.000000e+00
0.000000e+00
0.000000e+00
0.000000e+00
0.000000e+00
0.000000e+00
0.000000e+00
0.000000e+00
0.000000e+00
0.000000e+00
0.000000e+00
0.000000e+00
0.000000e+00
0.000000e+00
0.000000e+00
0.000000e+00
0.000000e+00
0.000000e+00
0.000000e+00
0.000000e+00
0.000000e+00
0.000000e+00
0.000000e+00
0.000000e+00
0.000000e+00
0.000000e+00
0.000000e+00
0.000000e+00
0.000000e+00
0.000000e+00
0.000000e+00
0.000000e+00
0.000000e+00
0.000000e+00
0.000000e+00
0.000000e+00
0.000000e+00
0.000000e+00
0.000000e+00
0.000000e+00
0.000000e+00
0.000000e+00
0.000000e+00
0.000000e+00
0.000000e+00
0.000000e+00
0.000000e+00
0.000000e+00
0.000000e+00
0.000000e+00
0.000000e+00
-0.000000e+00
-0.000000e+00
-0.000000e+00
-0.000000e+00
-0.000000e+00
-0.000000e+00
7.903142e-19
-2.766100e-18
2.082467e-18
2.280046e-18
-4.179766e-18
7.142492e-19
2.613970e-18
6.094319e-18
-9.721082e-19
1.235683e-18
7.686378e-18
-1.226157e-18
-1.793625e-17
-1.685589e-16
-1.056491e-15
-4.873046e-15
-1.985758e-14
-7.372022e-14
-2.536882e-13
-8.167280e-13
-2.474623e-12
-7.084277e-12
-1.921420e-11
-4.947152e-11
-1.210980e-10
-2.821296e-10
-6.261066e-10
-1.324317e-09
-2.670808e-09
-5.136535e-09
-9.419728e-09
-1.646571e-08
-2.741317e-08
-4.341154e-08
-6.525581e-08
-9.281496e-08
-1.243000e-07
-1.555299e-07
-1.794911e-07
-1.865993e-07
-1.660805e-07
-1.086990e-07
-1.060945e-08
1.225613e-07
2.729934e-07
4.112506e-07
5.016584e-07
5.125113e-07
4.288011e-07
2.628157e-07
5.692619e-08
-1.255508e-07
-2.210492e-07
-1.915838e-07
-4.459096e-08
1.643923e-07
3.511522e-07
4.385404e-07
3.927214e-07
2.410406e-07
5.999591e-08
-6.280472e-08
-7.351305e-08
2.100485e-08
1.598529e-07
2.647484e-07
2.847953e-07
2.225636e-07
1.266770e-07
5.761173e-08
5.007203e-08
9.591644e-08
1.562197e-07
1.910134e-07
1.847904e-07
1.515453e-07
1.193910e-07
1.088454e-07
1.208941e-07
1.411106e-07
1.534809e-07
1.519304e-07
1.418489e-07
1.330013e-07
1.312389e-07
1.354475e-07
1.405380e-07
1.424845e-07
1.409786e-07
1.384051e-07
1.370977e-07
1.375667e-07
1.387644e-07
1.394781e-07
1.393461e-07
1.388171e-07
1.384748e-07
1.385137e-07
1.387396e-07
1.388883e-07
1.388724e-07
1.387784e-07
1.387193e-07
1.387285e-07
1.387665e-07
1.387878e-07
1.387822e-07
1.387674e-07
1.387606e-07
1.387638e-07
1.387692e-07
1.387710e-07
1.387694e-07
1.387676e-07
1.387673e-07
1.387679e-07
1.387685e-07
1.387685e-07
1.387682e-07
1.387681e-07
1.387681e-07
1.387682e-07
1.387682e-07
1.387682e-07
1.387682e-07
1.387682e-07
1.387682e-07
1.387682e-07
1.387682e-07
1.387682e-07
1.387682e-07
1.387682e-07
0.000000e+00
0.000000e+00
-0.000000e+00
-0.000000e+00
-0.000000e+00
-0.000000e+00
-0.000000e+00
3.951571e-19
-2.173364e-18
1.778207e-18
7.903142e-19
-3.769777e-18
-1.094574e-18
5.289172e-18
5.927357e-19
-5.804890e-18
-6.425385e-18
-1.125436e-17
-7.371163e-17
-2.598323e-16
-8.933996e-16
-3.033317e-15
-1.013510e-14
-3.276808e-14
-1.024185e-13
-3.088181e-13
-8.969802e-13
-2.506590e-12
-6.732784e-12
-1.737152e-11
-4.303614e-11
-1.023507e-10
-2.336679e-10
-5.121785e-10
-1.078186e-09
-2.180836e-09
-4.241121e-09
-7.935820e-09
-1.429932e-08
-2.483215e-08
-4.159246e-08
-6.722852e-08
-1.048873e-07
-1.579089e-07
-2.292038e-07
-3.202292e-07
-4.295720e-07
-5.513282e-07
-6.737474e-07
-7.789100e-07
-8.443564e-07
-8.473846e-07
-7.719703e-07
-6.169687e-07
-4.027756e-07
-1.727117e-07
1.407791e-08
9.885470e-08
4.505689e-08
-1.423290e-07
-4.096813e-07
-6.671335e-07
-8.199189e-07
-8.080531e-07
-6.364758e-07
-3.786227e-07
-1.472044e-07
-4.279115e-08
-1.047975e-07
-2.914475e-07
-5.017787e-07
-6.296195e-07
-6.200390e-07
-4.959067e-07
-3.393214e-07
-2.400631e-07
-2.434224e-07
-3.291976e-07
-4.324587e-07
-4.892530e-07
-4.755791e-07
-4.153780e-07
-3.565421e-07
-3.355471e-07
-3.561742e-07
-3.942209e-07
-4.200908e-07
-4.200649e-07
-4.016670e-07
-3.828922e-07
-3.767765e-07
-3.835794e-07
-3.943198e-07
-4.000384e-07
-3.983273e-07
-3.930190e-07
-3.892957e-07
-3.893450e-07
-3.917306e-07
-3.937645e-07
-3.940297e-07
-3.930159e-07
-3.920209e-07
-3.918163e-07
-3.922376e-07
-3.926873e-07
-3.927927e-07
-3.926173e-07
-3.924267e-07
-3.923840e-07
-3.924578e-07
-3.925337e-07
-3.925473e-07
-3.925162e-07
-3.924879e-07
-3.924852e-07
-3.924980e-07
-3.925077e-07
-3.925074e-07
-3.925024e-07
-3.924994e-07
-3.925001e-07
-3.925019e-07
-3.925027e-07
-3.925022e-07
-3.925016e-07
-3.925015e-07
-3.925017e-07
-3.925019e-07
-3.925019e-07
-3.925018e-07
-3.925018e-07
-3.925018e-07
-3.925018e-07
-3.925018e-07
-3.925018e-07
-3.925018e-07
-3.925018e-07
-3.925018e-07
-3.925018e-07
0.000000e+00
0.000000e+00
-0.000000e+00
-0.000000e+00
-0.000000e+00
-0.000000e+00
3.951571e-19
-7.903142e-19
3.860674e-18
3.465517e-18
1.669620e-19
-2.447008e-18
2.203981e-18
1.018509e-18
-5.516415e-18
-5.377212e-18
-1.191023e-17
-3.614204e-17
-1.533863e-16
-4.994862e-16
-1.679001e-15
-5.501577e-15
-1.749812e-14
-5.377431e-14
-1.591778e-13
-4.531865e-13
-1.238872e-12
-3.247677e-12
-8.154612e-12
-1.959312e-11
-4.501227e-11
-9.881764e-11
-2.072483e-10
-4.153018e-10
-7.957939e-10
-1.460734e-09
-2.576637e-09
-4.389763e-09
-7.276158e-09
-1.184440e-08
-1.913134e-08
-3.093107e-08
-5.026597e-08
-8.192788e-08
-1.328807e-07
-2.121509e-07
-3.297140e-07
-4.939328e-07
-7.074453e-07
-9.621031e-07
-1.234519e-06
-1.484644e-06
-1.660018e-06
-1.707271e-06
-1.589891e-06
-1.307636e-06
-9.096827e-07
-4.927923e-07
-1.791751e-07
-7.663081e-08
-2.334731e-07
-6.079227e-07
-1.070680e-06
-1.447678e-06
-1.590709e-06
-1.445805e-06
-1.084171e-06
-6.744685e-07
-4.042674e-07
-3.879066e-07
-6.097799e-07
-9.361103e-07
-1.190678e-06
-1.252029e-06
-1.115705e-06
-8.858607e-07
-7.043975e-07
-6.642870e-07
-7.614810e-07
-9.117465e-07
-1.014832e-06
-1.019171e-06
-9.451414e-07
-8.578571e-07
-8.157916e-07
-8.340171e-07
-8.842772e-07
-9.244434e-07
-9.306335e-07
-9.088308e-07
-8.825798e-07
-8.714723e-07
-8.783743e-07
-8.923999e-07
-9.010738e-07
-8.999828e-07
-8.934046e-07
-8.881946e-07
-8.877302e-07
-8.905647e-07
-8.932729e-07
-8.938290e-07
-8.926628e-07
-8.913828e-07
-8.910418e-07
-8.915162e-07
-8.920803e-07
-8.922417e-07
-8.920460e-07
-8.918115e-07
-8.917483e-07
-8.918306e-07
-8.919227e-07
-8.919429e-07
-8.919080e-07
-8.918741e-07
-8.918696e-07
-8.918840e-07
-8.918956e-07
-8.918956e-07
-8.918900e-07
-8.918864e-07
-8.918871e-07
-8.918892e-07
-8.918901e-07
-8.918896e-07
-8.918889e-07
-8.918888e-07
-8.918890e-07
-8.918892e-07
-8.918892e-07
-8.918891e-07
-8.918890e-07
-8.918891e-07
-8.918891e-07
-8.918891e-07
-8.918891e-07
-8.918891e-07
-8.918891e-07
-8.918891e-07
0.000000e+00
0.000000e+00
-0.000000e+00
-0.000000e+00
-0.000000e+00
-0.000000e+00
-1.185471e-18
-1.778207e-18
2.082467e-18
-7.903142e-19
-3.282770e-18
-2.492456e-18
-4.099891e-19
-1.777254e-18
-2.657513e-18
-3.735350e-18
-6.415316e-18
-3.773397e-17
-1.401786e-16
-4.473911e-16
-1.401674e-15
-4.275866e-15
-1.250350e-14
-3.452386e-14
-8.927452e-14
-2.128209e-13
-4.546612e-13
-8.157102e-13
-9.779808e-13
5.790736e-13
9.036140e-12
3.930533e-11
1.295799e-10
3.688201e-10
9.474152e-10
2.241494e-09
4.937693e-09
1.019193e-08
1.978834e-08
3.622216e-08
6.258023e-08
1.020542e-07
1.569271e-07
2.269614e-07
3.073168e-07
3.864423e-07
4.447573e-07
4.552425e-07
3.870883e-07
2.130680e-07
-7.985116e-08
-4.789022e-07
-9.370641e-07
-1.373033e-06
-1.684109e-06
-1.772958e-06
-1.583150e-06
-1.131772e-06
-5.235180e-07
6.680481e-08
4.459475e-07
4.746229e-07
1.323728e-07
-4.579231e-07
-1.066663e-06
-1.448922e-06
-1.453791e-06
-1.098318e-06
-5.636564e-07
-1.082753e-07
6.115499e-08
-1.068699e-07
-4.890057e-07
-8.631195e-07
-1.035980e-06
-9.471180e-07
-6.886223e-07
-4.340304e-07
-3.263867e-07
-3.980852e-07
-5.691323e-07
-7.154725e-07
-7.541379e-07
-6.874198e-07
-5.836388e-07
-5.183921e-07
-5.232537e-07
-5.753912e-07
-6.266158e-07
-6.428547e-07
-6.238175e-07
-5.937072e-07
-5.770409e-07
-5.810788e-07
-5.959182e-07
-6.071432e-07
-6.078876e-07
-6.014061e-07
-5.951718e-07
-5.937520e-07
-5.963675e-07
-5.994483e-07
-6.004435e-07
-5.994267e-07
-5.980198e-07
-5.974931e-07
-5.978910e-07
-5.984973e-07
-5.987328e-07
-5.985706e-07
-5.983217e-07
-5.982302e-07
-5.982994e-07
-5.983968e-07
-5.984274e-07
-5.983972e-07
-5.983612e-07
-5.983530e-07
-5.983659e-07
-5.983783e-07
-5.983796e-07
-5.983743e-07
-5.983705e-07
-5.983707e-07
-5.983727e-07
-5.983737e-07
-5.983734e-07
-5.983727e-07
-5.983725e-07
-5.983727e-07
-5.983729e-07
-5.983729e-07
-5.983728e-07
-5.983728e-07
-5.983728e-07
-5.983728e-07
-5.983728e-07
-5.983728e-07
-5.983728e-07
-5.983728e-07
0.000000e+00
0.000000e+00
-0.000000e+00
-0.000000e+00
-0.000000e+00
-0.000000e+00
-5.927357e-19
9.878928e-19
-4.757670e-18
-4.255831e-18
-1.732758e-18
-1.383050e-18
-6.381842e-19
-4.345776e-18
-2.733578e-18
7.716719e-19
-4.016915e-19
2.704039e-18
4.025048e-17
1.871293e-16
8.793664e-16
3.518097e-15
1.361788e-14
5.025156e-14
1.768870e-13
5.937088e-13
1.900282e-12
5.800479e-12
1.688812e-11
4.690770e-11
1.243128e-10
3.143784e-10
7.587759e-10
1.748121e-09
3.845279e-09
8.078371e-09
1.621612e-08
3.111950e-08
5.712913e-08
1.003978e-07
1.690193e-07
2.727489e-07
4.220797e-07
6.264463e-07
8.914162e-07
1.214927e-06
1.582989e-06
1.965819e-06
2.316011e-06
2.570885e-06
2.661121e-06
2.526675e-06
2.138502e-06
1.520900e-06
7.657082e-07
2.812931e-08
-5.030573e-07
-6.596169e-07
-3.587181e-07
3.461425e-07
1.255778e-06
2.074664e-06
2.512622e-06
2.404183e-06
1.792430e-06
9.293500e-07
1.781300e-07
-1.474795e-07
6.836578e-08
6.861800e-07
1.382006e-06
1.815090e-06
1.803667e-06
1.411045e-06
8.935106e-07
5.429523e-07
5.204460e-07
7.802615e-07
1.123595e-06
1.337664e-06
1.325059e-06
1.143199e-06
9.406298e-07
8.463106e-07
8.917553e-07
1.011931e-06
1.109754e-06
1.127945e-06
1.077447e-06
1.012302e-06
9.809640e-07
9.942449e-07
1.028589e-06
1.053017e-06
1.053604e-06
1.038181e-06
1.023554e-06
1.020109e-06
1.026262e-06
1.033827e-06
1.036582e-06
1.034316e-06
1.030755e-06
1.029166e-06
1.029975e-06
1.031549e-06
1.032321e-06
1.032021e-06
1.031356e-06
1.031025e-06
1.031148e-06
1.031417e-06
1.031544e-06
1.031490e-06
1.031384e-06
1.031341e-06
1.031367e-06
1.031406e-06
1.031418e-06
1.031407e-06
1.031393e-06
1.031390e-06
1.031395e-06
1.031400e-06
1.031400e-06
1.031398e-06
1.031397e-06
1.031397e-06
1.031398e-06
1.031398e-06
1.031398e-06
1.031398e-06
1.031397e-06
1.031398e-06
1.031398e-06
1.031398e-06
1.031398e-06
1.031398e-06
1.031398e-06
1.031398e-06
0.000000e+00
0.000000e+00
-0.000000e+00
-0.000000e+00
-0.000000e+00
-0.000000e+00
2.766100e-18
-5.152827e-18
-2.477624e-18
1.930337e-18
-3.161257e-18
-5.046145e-18
-5.030361e-18
-1.823655e-18
1.271605e-18
6.533153e-18
2.440312e-17
1.110033e-16
4.089093e-16
1.446895e-15
5.076426e-15
1.738017e-14
5.787714e-14
1.870718e-13
5.848468e-13
1.764692e-12
5.130069e-12
1.434522e-11
3.853229e-11
9.930250e-11
2.452840e-10
5.802087e-10
1.313491e-09
2.844662e-09
5.893346e-09
1.168286e-08
2.217720e-08
4.036045e-08
7.054030e-08
1.186599e-07
1.926140e-07
3.025704e-07
4.612542e-07
6.840201e-07
9.882974e-07
1.391701e-06
1.907949e-06
2.539989e-06
3.270625e-06
4.052645e-06
4.802429e-06
5.402557e-06
5.718694e-06
5.632715e-06
5.087515e-06
4.130539e-06
2.936424e-06
1.789096e-06
1.014027e-06
8.717210e-07
1.446977e-06
2.583038e-06
3.903567e-06
4.934190e-06
5.288328e-06
4.840508e-06
3.799941e-06
2.632635e-06
1.852864e-06
1.779172e-06
2.381009e-06
3.303093e-06
4.060086e-06
4.296456e-06
3.965505e-06
3.327222e-06
2.772982e-06
2.589824e-06
2.809683e-06
3.227750e-06
3.561227e-06
3.632911e-06
3.460316e-06
3.206980e-06
3.049380e-06
3.061336e-06
3.189591e-06
3.319099e-06
3.364889e-06
3.321456e-06
3.245129e-06
3.198024e-06
3.203093e-06
3.239601e-06
3.271275e-06
3.277290e-06
3.262397e-06
3.244941e-06
3.238649e-06
3.243979e-06
3.252505e-06
3.256562e-06
3.254840e-06
3.250989e-06
3.248858e-06
3.249390e-06
3.251041e-06
3.252025e-06
3.251848e-06
3.251164e-06
3.250754e-06
3.250827e-06
3.251102e-06
3.251258e-06
3.251221e-06
3.251114e-06
3.251061e-06
3.251080e-06
3.251120e-06
3.251136e-06
3.251126e-06
3.251112e-06
3.251108e-06
3.251113e-06
3.251117e-06
3.251118e-06
3.251116e-06
3.251115e-06
3.251115e-06
3.251115e-06
3.251116e-06
3.251116e-06
3.251115e-06
3.251115e-06
3.251115e-06
3.251116e-06
3.251116e-06
3.251116e-06
3.251115e-06
3.251115e-06
0.000000e+00
0.000000e+00
-0.000000e+00
-0.000000e+00
-0.000000e+00
1.975786e-19
8.969958e-19
-3.556414e-18
4.712221e-19
3.723376e-18
7.439131e-19
2.856997e-18
8.812112e-19
4.296517e-18
8.195562e-18
1.068924e-17
5.108411e-17
2.322707e-16
8.041380e-16
2.751817e-15
9.270702e-15
3.043912e-14
9.699214e-14
2.989111e-13
8.885370e-13
2.541814e-12
6.981968e-12
1.837412e-11
4.621761e-11
1.108368e-10
2.527145e-10
5.461234e-10
1.114544e-09
2.138749e-09
3.837679e-09
6.390305e-09
9.762743e-09
1.342566e-08
1.601186e-08
1.508226e-08
7.321074e-09
-1.039848e-08
-3.865466e-08
-7.167966e-08
-9.258695e-08
-6.896846e-08
4.887206e-08
3.242375e-07
8.224491e-07
1.590608e-06
2.631181e-06
3.876136e-06
5.172283e-06
6.290036e-06
6.964496e-06
6.968310e-06
6.200976e-06
4.764029e-06
2.983804e-06
1.351896e-06
3.813531e-07
4.172894e-07
1.475752e-06
3.192287e-06
4.928227e-06
6.014715e-06
6.040165e-06
5.046348e-06
3.523196e-06
2.184055e-06
1.620934e-06
2.016050e-06
3.067420e-06
4.172407e-06
4.766122e-06
4.620565e-06
3.934603e-06
3.173481e-06
2.770152e-06
2.879871e-06
3.332549e-06
3.789409e-06
3.979015e-06
3.851331e-06
3.563644e-06
3.336107e-06
3.295996e-06
3.416896e-06
3.574254e-06
3.653917e-06
3.626514e-06
3.543991e-06
3.480317e-06
3.473215e-06
3.508564e-06
3.546784e-06
3.559615e-06
3.546964e-06
3.527403e-06
3.517890e-06
3.521639e-06
3.530685e-06
3.536102e-06
3.535226e-06
3.531307e-06
3.528643e-06
3.528784e-06
3.530416e-06
3.531598e-06
3.531585e-06
3.530921e-06
3.530439e-06
3.530448e-06
3.530713e-06
3.530895e-06
3.530882e-06
3.530779e-06
3.530716e-06
3.530727e-06
3.530765e-06
3.530785e-06
3.530778e-06
3.530764e-06
3.530759e-06
3.530763e-06
3.530767e-06
3.530768e-06
3.530767e-06
3.530765e-06
3.530765e-06
3.530766e-06
3.530766e-06
3.530766e-06
3.530766e-06
3.530766e-06
3.530766e-06
3.530766e-06
3.530766e-06
3.530766e-06
3.530766e-06
0.000000e+00
0.000000e+00
-0.000000e+00
-0.000000e+00
-0.000000e+00
-1.383050e-18
3.951571e-18
3.161257e-18
1.975786e-19
-3.860674e-18
-2.675203e-18
2.385775e-18
3.612884e-18
4.706096e-18
7.339385e-18
1.776818e-17
7.809783e-17
2.671621e-16
8.752705e-16
2.913785e-15
9.420483e-15
2.937175e-14
8.801478e-14
2.521526e-13
6.861358e-13
1.758916e-12
4.195799e-12
9.119068e-12
1.729797e-11
2.546067e-11
1.401297e-11
-8.673271e-11
-4.775542e-10
-1.663243e-09
-4.783514e-09
-1.218011e-08
-2.826007e-08
-6.063997e-08
-1.214048e-07
-2.280970e-07
-4.038172e-07
-6.756666e-07
-1.070795e-06
-1.609642e-06
-2.296581e-06
-3.109085e-06
-3.987639e-06
-4.829755e-06
-5.492338e-06
-5.806758e-06
-5.609502e-06
-4.787521e-06
-3.331076e-06
-1.379241e-06
7.628064e-07
2.655782e-06
3.818748e-06
3.872045e-06
2.692719e-06
5.211468e-07
-2.045148e-06
-4.204337e-06
-5.222923e-06
-4.733285e-06
-2.923190e-06
-5.073973e-07
1.541165e-06
2.405125e-06
1.795494e-06
9.196909e-08
-1.840990e-06
-3.086248e-06
-3.133099e-06
-2.113956e-06
-6.883821e-07
3.530751e-07
5.296518e-07
-1.005983e-07
-1.043128e-06
-1.712089e-06
-1.785630e-06
-1.351914e-06
-7.819384e-07
-4.485138e-07
-4.949107e-07
-7.942467e-07
-1.091502e-06
-1.198672e-06
-1.101267e-06
-9.232022e-07
-8.065978e-07
-8.102331e-07
-8.930778e-07
-9.723356e-07
-9.943104e-07
-9.633630e-07
-9.200571e-07
-8.998167e-07
-9.087875e-07
-9.294769e-07
-9.421730e-07
-9.405494e-07
-9.314923e-07
-9.248454e-07
-9.246921e-07
-9.284499e-07
-9.315544e-07
-9.318602e-07
-9.303435e-07
-9.290105e-07
-9.288436e-07
-9.294491e-07
-9.299825e-07
-9.300425e-07
-9.298023e-07
-9.296030e-07
-9.295904e-07
-9.296843e-07
-9.297534e-07
-9.297516e-07
-9.297160e-07
-9.296942e-07
-9.296978e-07
-9.297106e-07
-9.297167e-07
-9.297143e-07
-9.297100e-07
-9.297086e-07
-9.297098e-07
-9.297111e-07
-9.297113e-07
-9.297108e-07
-9.297105e-07
-9.297105e-07
-9.297107e-07
-9.297108e-07
-9.297107e-07
-9.297107e-07
-9.297107e-07
-9.297107e-07
0.000000e+00
0.000000e+00
-0.000000e+00
3.951571e-19
-1.975786e-19
-1.489731e-18
2.173364e-18
-3.739160e-18
-1.565796e-18
-4.103701e-18
-0.000000e+00
-2.616827e-18
3.527293e-18
3.682415e-18
4.437308e-19
6.406208e-18
3.782576e-17
8.989308e-17
2.143951e-16
5.022167e-16
8.299188e-16
-5.630638e-16
-1.363529e-14
-8.298611e-14
-3.842765e-13
-1.547258e-12
-5.662762e-12
-1.921091e-11
-6.100683e-11
-1.822883e-10
-5.138947e-10
-1.368830e-09
-3.447731e-09
-8.216141e-09
-1.853519e-08
-3.961241e-08
-8.027599e-08
-1.544546e-07
-2.825860e-07
-4.925369e-07
-8.195663e-07
-1.304941e-06
-1.992973e-06
-2.926346e-06
-4.139532e-06
-5.649838e-06
-7.445514e-06
-9.470983e-06
-1.161111e-05
-1.367957e-05
-1.542000e-05
-1.653023e-05
-1.671716e-05
-1.578113e-05
-1.371326e-05
-1.077394e-05
-7.510388e-06
-4.677566e-06
-3.052750e-06
-3.179176e-06
-5.122794e-06
-8.353800e-06
-1.184452e-05
-1.439721e-05
-1.510275e-05
-1.373982e-05
-1.091467e-05
-7.837882e-06
-5.804732e-06
-5.606361e-06
-7.162798e-06
-9.580820e-06
-1.162531e-05
-1.236045e-05
-1.160949e-05
-9.980625e-06
-8.460768e-06
-7.833299e-06
-8.269270e-06
-9.317919e-06
-1.026299e-05
-1.058724e-05
-1.024471e-05
-9.597765e-06
-9.111174e-06
-9.040467e-06
-9.317867e-06
-9.672301e-06
-9.855634e-06
-9.799891e-06
-9.614291e-06
-9.462536e-06
-9.435658e-06
-9.510816e-06
-9.601961e-06
-9.640243e-06
-9.617423e-06
-9.571711e-06
-9.544296e-06
-9.548160e-06
-9.568523e-06
-9.583944e-06
-9.584906e-06
-9.576513e-06
-9.568952e-06
-9.567646e-06
-9.570957e-06
-9.574337e-06
-9.575115e-06
-9.573828e-06
-9.572419e-06
-9.572068e-06
-9.572572e-06
-9.573125e-06
-9.573255e-06
-9.573056e-06
-9.572851e-06
-9.572812e-06
-9.572891e-06
-9.572962e-06
-9.572970e-06
-9.572940e-06
-9.572917e-06
-9.572917e-06
-9.572928e-06
-9.572935e-06
-9.572933e-06
-9.572930e-06
-9.572928e-06
-9.572929e-06
-9.572930e-06
-9.572930e-06
-9.572930e-06
-9.572929e-06
-9.572929e-06
-9.572930e-06
-9.572930e-06
-9.572930e-06
-9.572930e-06
-9.572930e-06
0.000000e+00
0.000000e+00
-0.000000e+00
-1.185471e-18
9.878928e-19
1.778207e-18
-2.884755e-19
1.185471e-18
-1.109406e-18
-2.203981e-18
1.016604e-18
2.726910e-18
3.181938e-18
-1.194454e-18
-1.309392e-17
-2.372500e-17
-1.092519e-16
-3.859232e-16
-1.421665e-15
-5.203811e-15
-1.854249e-14
-6.450620e-14
-2.189657e-13
-7.228733e-13
-2.316016e-12
-7.186254e-12
-2.154463e-11
-6.225134e-11
-1.728751e-10
-4.600868e-10
-1.170140e-09
-2.836516e-09
-6.538778e-09
-1.430835e-08
-2.968362e-08
-5.834308e-08
-1.086418e-07
-1.917968e-07
-3.215018e-07
-5.130001e-07
-7.821073e-07
-1.145198e-06
-1.621390e-06
-2.237666e-06
-3.036183e-06
-4.080772e-06
-5.457362e-06
-7.262037e-06
-9.572076e-06
-1.240032e-05
-1.564148e-05
-1.902835e-05
-2.212257e-05
-2.436394e-05
-2.518942e-05
-2.420847e-05
-2.138981e-05
-1.718915e-05
-1.254236e-05
-8.676519e-06
-6.753589e-06
-7.443421e-06
-1.059154e-05
-1.515743e-05
-1.951868e-05
-2.207554e-05
-2.192052e-05
-1.925915e-05
-1.534913e-05
-1.194427e-05
-1.048341e-05
-1.141875e-05
-1.403552e-05
-1.687099e-05
-1.851141e-05
-1.832210e-05