# vtk DataFile Version 3.0
Resultado Projeto 3
ASCII
DATASET STRUCTURED_GRID
DIMENSIONS 70 30 1 
POINTS 2100 double
0.000000e+00 0.000000e+00 0.000000e+00
5.072464e-02 0.000000e+00 0.000000e+00
1.014493e-01 0.000000e+00 0.000000e+00
1.521739e-01 0.000000e+00 0.000000e+00
2.028986e-01 0.000000e+00 0.000000e+00
2.536232e-01 0.000000e+00 0.000000e+00
3.043478e-01 0.000000e+00 0.000000e+00
3.550725e-01 0.000000e+00 0.000000e+00
4.057971e-01 0.000000e+00 0.000000e+00
4.565217e-01 0.000000e+00 0.000000e+00
5.072464e-01 0.000000e+00 0.000000e+00
5.579710e-01 0.000000e+00 0.000000e+00
6.086957e-01 0.000000e+00 0.000000e+00
6.594203e-01 0.000000e+00 0.000000e+00
7.101449e-01 0.000000e+00 0.000000e+00
7.608696e-01 0.000000e+00 0.000000e+00
8.115942e-01 0.000000e+00 0.000000e+00
8.623188e-01 0.000000e+00 0.000000e+00
9.130435e-01 0.000000e+00 0.000000e+00
9.637681e-01 0.000000e+00 0.000000e+00
1.014493e+00 0.000000e+00 0.000000e+00
1.065217e+00 0.000000e+00 0.000000e+00
1.115942e+00 0.000000e+00 0.000000e+00
1.166667e+00 0.000000e+00 0.000000e+00
1.217391e+00 0.000000e+00 0.000000e+00
1.268116e+00 0.000000e+00 0.000000e+00
1.318841e+00 0.000000e+00 0.000000e+00
1.369565e+00 0.000000e+00 0.000000e+00
1.420290e+00 0.000000e+00 0.000000e+00
1.471014e+00 0.000000e+00 0.000000e+00
1.521739e+00 0.000000e+00 0.000000e+00
1.572464e+00 0.000000e+00 0.000000e+00
1.623188e+00 0.000000e+00 0.000000e+00
1.673913e+00 0.000000e+00 0.000000e+00
1.724638e+00 0.000000e+00 0.000000e+00
1.775362e+00 0.000000e+00 0.000000e+00
1.826087e+00 0.000000e+00 0.000000e+00
1.876812e+00 0.000000e+00 0.000000e+00
1.927536e+00 0.000000e+00 0.000000e+00
1.978261e+00 0.000000e+00 0.000000e+00
2.028986e+00 0.000000e+00 0.000000e+00
2.079710e+00 0.000000e+00 0.000000e+00
2.130435e+00 0.000000e+00 0.000000e+00
2.181159e+00 0.000000e+00 0.000000e+00
2.231884e+00 0.000000e+00 0.000000e+00
2.282609e+00 0.000000e+00 0.000000e+00
2.333333e+00 0.000000e+00 0.000000e+00
2.384058e+00 0.000000e+00 0.000000e+00
2.434783e+00 0.000000e+00 0.000000e+00
2.485507e+00 0.000000e+00 0.000000e+00
2.536232e+00 0.000000e+00 0.000000e+00
2.586957e+00 0.000000e+00 0.000000e+00
2.637681e+00 0.000000e+00 0.000000e+00
2.688406e+00 0.000000e+00 0.000000e+00
2.739130e+00 0.000000e+00 0.000000e+00
2.789855e+00 0.000000e+00 0.000000e+00
2.840580e+00 0.000000e+00 0.000000e+00
2.891304e+00 0.000000e+00 0.000000e+00
2.942029e+00 0.000000e+00 0.000000e+00
2.992754e+00 0.000000e+00 0.000000e+00
3.043478e+00 0.000000e+00 0.000000e+00
3.094203e+00 0.000000e+00 0.000000e+00
3.144928e+00 0.000000e+00 0.000000e+00
3.195652e+00 0.000000e+00 0.000000e+00
3.246377e+00 0.000000e+00 0.000000e+00
3.297101e+00 0.000000e+00 0.000000e+00
3.347826e+00 0.000000e+00 0.000000e+00
3.398551e+00 0.000000e+00 0.000000e+00
3.449275e+00 0.000000e+00 0.000000e+00
3.500000e+00 0.000000e+00 0.000000e+00
0.000000e+00 3.448276e-02 0.000000e+00
5.072464e-02 3.448276e-02 0.000000e+00
1.014493e-01 3.448276e-02 0.000000e+00
1.521739e-01 3.448276e-02 0.000000e+00
2.028986e-01 3.448276e-02 0.000000e+00
2.536232e-01 3.448276e-02 0.000000e+00
3.043478e-01 3.448276e-02 0.000000e+00
3.550725e-01 3.448276e-02 0.000000e+00
4.057971e-01 3.448276e-02 0.000000e+00
4.565217e-01 3.448276e-02 0.000000e+00
5.072464e-01 3.448276e-02 0.000000e+00
5.579710e-01 3.448276e-02 0.000000e+00
6.086957e-01 3.448276e-02 0.000000e+00
6.594203e-01 3.448276e-02 0.000000e+00
7.101449e-01 3.448276e-02 0.000000e+00
7.608696e-01 3.448276e-02 0.000000e+00
8.115942e-01 3.448276e-02 0.000000e+00
8.623188e-01 3.448276e-02 0.000000e+00
9.130435e-01 3.448276e-02 0.000000e+00
9.637681e-01 3.448276e-02 0.000000e+00
1.014493e+00 3.448276e-02 0.000000e+00
1.065217e+00 3.448276e-02 0.000000e+00
1.115942e+00 3.448276e-02 0.000000e+00
1.166667e+00 3.448276e-02 0.000000e+00
1.217391e+00 3.448276e-02 0.000000e+00
1.268116e+00 3.448276e-02 0.000000e+00
1.318841e+00 3.448276e-02 0.000000e+00
1.369565e+00 3.448276e-02 0.000000e+00
1.420290e+00 3.448276e-02 0.000000e+00
1.471014e+00 3.448276e-02 0.000000e+00
1.521739e+00 3.448276e-02 0.000000e+00
1.572464e+00 3.448276e-02 0.000000e+00
1.623188e+00 3.448276e-02 0.000000e+00
1.673913e+00 3.448276e-02 0.000000e+00
1.724638e+00 3.448276e-02 0.000000e+00
1.775362e+00 3.448276e-02 0.000000e+00
1.826087e+00 3.448276e-02 0.000000e+00
1.876812e+00 3.448276e-02 0.000000e+00
1.927536e+00 3.448276e-02 0.000000e+00
1.978261e+00 3.448276e-02 0.000000e+00
2.028986e+00 3.448276e-02 0.000000e+00
2.079710e+00 3.448276e-02 0.000000e+00
2.130435e+00 3.448276e-02 0.000000e+00
2.181159e+00 3.448276e-02 0.000000e+00
2.231884e+00 3.448276e-02 0.000000e+00
2.282609e+00 3.448276e-02 0.000000e+00
2.333333e+00 3.448276e-02 0.000000e+00
2.384058e+00 3.448276e-02 0.000000e+00
2.434783e+00 3.448276e-02 0.000000e+00
2.485507e+00 3.448276e-02 0.000000e+00
2.536232e+00 3.448276e-02 0.000000e+00
2.586957e+00 3.448276e-02 0.000000e+00
2.637681e+00 3.448276e-02 0.000000e+00
2.688406e+00 3.448276e-02 0.000000e+00
2.739130e+00 3.448276e-02 0.000000e+00
2.789855e+00 3.448276e-02 0.000000e+00
2.840580e+00 3.448276e-02 0.000000e+00
2.891304e+00 3.448276e-02 0.000000e+00
2.942029e+00 3.448276e-02 0.000000e+00
2.992754e+00 3.448276e-02 0.000000e+00
3.043478e+00 3.448276e-02 0.000000e+00
3.094203e+00 3.448276e-02 0.000000e+00
3.144928e+00 3.448276e-02 0.000000e+00
3.195652e+00 3.448276e-02 0.000000e+00
3.246377e+00 3.448276e-02 0.000000e+00
3.297101e+00 3.448276e-02 0.000000e+00
3.347826e+00 3.448276e-02 0.000000e+00
3.398551e+00 3.448276e-02 0.000000e+00
3.449275e+00 3.448276e-02 0.000000e+00
3.500000e+00 3.448276e-02 0.000000e+00
0.000000e+00 6.896552e-02 0.000000e+00
5.072464e-02 6.896552e-02 0.000000e+00
1.014493e-01 6.896552e-02 0.000000e+00
1.521739e-01 6.896552e-02 0.000000e+00
2.028986e-01 6.896552e-02 0.000000e+00
2.536232e-01 6.896552e-02 0.000000e+00
3.043478e-01 6.896552e-02 0.000000e+00
3.550725e-01 6.896552e-02 0.000000e+00
4.057971e-01 6.896552e-02 0.000000e+00
4.565217e-01 6.896552e-02 0.000000e+00
5.072464e-01 6.896552e-02 0.000000e+00
5.579710e-01 6.896552e-02 0.000000e+00
6.086957e-01 6.896552e-02 0.000000e+00
6.594203e-01 6.896552e-02 0.000000e+00
7.101449e-01 6.896552e-02 0.000000e+00
7.608696e-01 6.896552e-02 0.000000e+00
8.115942e-01 6.896552e-02 0.000000e+00
8.623188e-01 6.896552e-02 0.000000e+00
9.130435e-01 6.896552e-02 0.000000e+00
9.637681e-01 6.896552e-02 0.000000e+00
1.014493e+00 6.896552e-02 0.000000e+00
1.065217e+00 6.896552e-02 0.000000e+00
1.115942e+00 6.896552e-02 0.000000e+00
1.166667e+00 6.896552e-02 0.000000e+00
1.217391e+00 6.896552e-02 0.000000e+00
1.268116e+00 6.896552e-02 0.000000e+00
1.318841e+00 6.896552e-02 0.000000e+00
1.369565e+00 6.896552e-02 0.000000e+00
1.420290e+00 6.896552e-02 0.000000e+00
1.471014e+00 6.896552e-02 0.000000e+00
1.521739e+00 6.896552e-02 0.000000e+00
1.572464e+00 6.896552e-02 0.000000e+00
1.623188e+00 6.896552e-02 0.000000e+00
1.673913e+00 6.896552e-02 0.000000e+00
1.724638e+00 6.896552e-02 0.000000e+00
1.775362e+00 6.896552e-02 0.000000e+00
1.826087e+00 6.896552e-02 0.000000e+00
1.876812e+00 6.896552e-02 0.000000e+00
1.927536e+00 6.896552e-02 0.000000e+00
1.978261e+00 6.896552e-02 0.000000e+00
2.028986e+00 6.896552e-02 0.000000e+00
2.079710e+00 6.896552e-02 0.000000e+00
2.130435e+00 6.896552e-02 0.000000e+00
2.181159e+00 6.896552e-02 0.000000e+00
2.231884e+00 6.896552e-02 0.000000e+00
2.282609e+00 6.896552e-02 0.000000e+00
2.333333e+00 6.896552e-02 0.000000e+00
2.384058e+00 6.896552e-02 0.000000e+00
2.434783e+00 6.896552e-02 0.000000e+00
2.485507e+00 6.896552e-02 0.000000e+00
2.536232e+00 6.896552e-02 0.000000e+00
2.586957e+00 6.896552e-02 0.000000e+00
2.637681e+00 6.896552e-02 0.000000e+00
2.688406e+00 6.896552e-02 0.000000e+00
2.739130e+00 6.896552e-02 0.000000e+00
2.789855e+00 6.896552e-02 0.000000e+00
2.840580e+00 6.896552e-02 0.000000e+00
2.891304e+00 6.896552e-02 0.000000e+00
2.942029e+00 6.896552e-02 0.000000e+00
2.992754e+00 6.896552e-02 0.000000e+00
3.043478e+00 6.896552e-02 0.000000e+00
3.094203e+00 6.896552e-02 0.000000e+00
3.144928e+00 6.896552e-02 0.000000e+00
3.195652e+00 6.896552e-02 0.000000e+00
3.246377e+00 6.896552e-02 0.000000e+00
3.297101e+00 6.896552e-02 0.000000e+00
3.347826e+00 6.896552e-02 0.000000e+00
3.398551e+00 6.896552e-02 0.000000e+00
3.449275e+00 6.896552e-02 0.000000e+00
3.500000e+00 6.896552e-02 0.000000e+00
0.000000e+00 1.034483e-01 0.000000e+00
5.072464e-02 1.034483e-01 0.000000e+00
1.014493e-01 1.034483e-01 0.000000e+00
1.521739e-01 1.034483e-01 0.000000e+00
2.028986e-01 1.034483e-01 0.000000e+00
2.536232e-01 1.034483e-01 0.000000e+00
3.043478e-01 1.034483e-01 0.000000e+00
3.550725e-01 1.034483e-01 0.000000e+00
4.057971e-01 1.034483e-01 0.000000e+00
4.565217e-01 1.034483e-01 0.000000e+00
5.072464e-01 1.034483e-01 0.000000e+00
5.579710e-01 1.034483e-01 0.000000e+00
6.086957e-01 1.034483e-01 0.000000e+00
6.594203e-01 1.034483e-01 0.000000e+00
7.101449e-01 1.034483e-01 0.000000e+00
7.608696e-01 1.034483e-01 0.000000e+00
8.115942e-01 1.034483e-01 0.000000e+00
8.623188e-01 1.034483e-01 0.000000e+00
9.130435e-01 1.034483e-01 0.000000e+00
9.637681e-01 1.034483e-01 0.000000e+00
1.014493e+00 1.034483e-01 0.000000e+00
1.065217e+00 1.034483e-01 0.000000e+00
1.115942e+00 1.034483e-01 0.000000e+00
1.166667e+00 1.034483e-01 0.000000e+00
1.217391e+00 1.034483e-01 0.000000e+00
1.268116e+00 1.034483e-01 0.000000e+00
1.318841e+00 1.034483e-01 0.000000e+00
1.369565e+00 1.034483e-01 0.000000e+00
1.420290e+00 1.034483e-01 0.000000e+00
1.471014e+00 1.034483e-01 0.000000e+00
1.521739e+00 1.034483e-01 0.000000e+00
1.572464e+00 1.034483e-01 0.000000e+00
1.623188e+00 1.034483e-01 0.000000e+00
1.673913e+00 1.034483e-01 0.000000e+00
1.724638e+00 1.034483e-01 0.000000e+00
1.775362e+00 1.034483e-01 0.000000e+00
1.826087e+00 1.034483e-01 0.000000e+00
1.876812e+00 1.034483e-01 0.000000e+00
1.927536e+00 1.034483e-01 0.000000e+00
1.978261e+00 1.034483e-01 0.000000e+00
2.028986e+00 1.034483e-01 0.000000e+00
2.079710e+00 1.034483e-01 0.000000e+00
2.130435e+00 1.034483e-01 0.000000e+00
[...]
POINT_DATA 2100
SCALARS RES_Cont double
LOOKUP_TABLE default
0.000000e+00
0.000000e+00
0.000000e+00
0.000000e+00
0.000000e+00
0.000000e+00
0.000000e+00
0.000000e+00
0.000000e+00
0.000000e+00
0.000000e+00
0.000000e+00
0.000000e+00
0.000000e+00
0.000000e+00
0.000000e+00
0.000000e+00
0.000000e+00
0.000000e+00
0.000000e+00
0.000000e+00
0.000000e+00
0.000000e+00
0.000000e+00
0.000000e+00
0.000000e+00
0.000000e+00
0.000000e+00
0.000000e+00
0.000000e+00
0.000000e+00
0.000000e+00
0.000000e+00
0.000000e+00
0.000000e+00
0.000000e+00
0.000000e+00
0.000000e+00
0.000000e+00
0.000000e+00
0.000000e+00
0.000000e+00
0.000000e+00
0.000000e+00
0.000000e+00
0.000000e+00
0.000000e+00
0.000000e+00
0.000000e+00
0.000000e+00
0.000000e+00
0.000000e+00
0.000000e+00
0.000000e+00
0.000000e+00
0.000000e+00
0.000000e+00
0.000000e+00
0.000000e+00
0.000000e+00
0.000000e+00
0.000000e+00
0.000000e+00
0.000000e+00
0.000000e+00
0.000000e+00
0.000000e+00
0.000000e+00
0.000000e+00
0.000000e+00
0.000000e+00
4.698404e-18
6.786609e-18
5.173018e-18
2.851350e-18
5.869046e-18
2.672382e-18
2.503267e-18
5.831173e-18
5.140845e-18
6.206192e-18
2.043262e-18
2.533669e-18
3.753117e-18
2.517636e-18
2.238900e-18
3.620871e-18
4.040299e-18
3.061350e-18
4.319099e-18
5.941690e-18
-8.200497e-19
9.722007e-19
1.621068e-18
4.623140e-18
2.597951e-18
1.382020e-18
-1.791741e-18
5.306229e-18
6.713548e-18
6.736787e-18
-2.309388e-18
4.638408e-18
-8.818678e-18
2.339804e-18
4.028415e-18
5.393197e-18
7.612932e-18
2.885907e-18
1.328203e-17
1.161069e-17
1.001227e-17
-0.000000e+00
3.951371e-18
2.262496e-17
3.548707e-17
1.712832e-16
5.731747e-16
1.896560e-15
6.027636e-15
1.821271e-14
5.299499e-14
1.479086e-13
3.971758e-13
1.027173e-12
2.562088e-12
6.171558e-12
1.437353e-11
3.240434e-11
7.079199e-11
1.500204e-10
3.086882e-10
6.172860e-10
1.200661e-09
2.273379e-09
4.193437e-09
7.540967e-09
1.322932e-08
2.265588e-08
0.000000e+00
0.000000e+00
2.096617e-18
2.081499e-18
2.893700e-18
5.367266e-18
3.935137e-18
4.994743e-18
3.333714e-18
-2.599237e-19
7.329527e-19
2.528172e-18
-5.967151e-19
1.848333e-18
1.337476e-18
-9.863137e-19
1.887900e-18
9.816012e-19
3.329467e-18
2.902073e-18
4.053690e-18
2.206855e-18
6.824738e-18
2.269031e-18
1.986535e-18
1.785306e-18
3.656019e-18
-1.790220e-18
4.729451e-18
-5.559258e-18
3.444308e-18
-2.633523e-18
5.617858e-18
4.645226e-18
-3.165082e-18
3.512461e-18
-2.350843e-18
5.056354e-19
2.452477e-18
-3.648248e-18
1.242389e-17
2.133089e-18
5.901416e-18
3.642590e-18
-1.459708e-18
1.616812e-17
3.746056e-17
1.426626e-16
5.593712e-16
1.843538e-15
5.901968e-15
1.788431e-14
5.206276e-14
1.456254e-13
3.915805e-13
1.013965e-12
2.531860e-12
6.104538e-12
1.422934e-11
3.210293e-11
7.017946e-11
1.488090e-10
3.063546e-10
6.129050e-10
1.192640e-09
2.259046e-09
4.168430e-09
7.498348e-09
1.315833e-08
2.254028e-08
0.000000e+00
0.000000e+00
5.352912e-18
1.331129e-18
5.073073e-18
6.588508e-18
4.361507e-18
1.234923e-18
5.339137e-18
2.962163e-18
2.643731e-19
-6.153960e-18
5.636150e-18
-5.881793e-19
-1.747155e-18
1.574827e-19
-2.276902e-18
-1.184029e-18
5.366387e-18
1.852226e-18
2.490261e-18
1.377064e-18
3.869369e-18
1.824277e-18
2.961772e-18
3.086991e-18
8.136181e-19
4.565411e-18
-4.086450e-18
4.918282e-19
3.947800e-18
5.943058e-18
3.645401e-18
7.484241e-18
-6.843678e-18
-1.088743e-17
1.764558e-18
-4.130260e-18
-8.369801e-18
4.239210e-19
7.991206e-18
5.752901e-18
7.944860e-18
1.061595e-17
1.230925e-17
2.113796e-17
3.156118e-17
1.483176e-16
5.358314e-16
1.787070e-15
5.672363e-15
1.724717e-14
5.047862e-14
1.415109e-13
3.814771e-13
9.900807e-13
2.477262e-12
5.983447e-12
1.396893e-11
3.155905e-11
6.907495e-11
1.466264e-10
3.021542e-10
6.050265e-10
1.178228e-09
2.233320e-09
4.123594e-09
7.422014e-09
1.303132e-08
2.233367e-08
0.000000e+00
0.000000e+00
1.538739e-18
-7.459148e-19
-8.444514e-19
3.662899e-19
-5.058492e-19
5.011776e-18
4.998744e-18
4.153177e-18
4.687370e-18
5.182287e-18
4.325171e-18
4.575802e-19
3.770726e-18
6.565056e-19
6.656353e-18
1.578792e-18
5.055660e-18
2.530757e-19
-2.328875e-18
3.160376e-18
-3.770295e-18
2.231596e-18
-1.624872e-19
2.278409e-18
2.364603e-18
-3.433243e-18
4.099307e-18
7.074102e-18
1.815993e-18
1.308842e-17
9.974994e-18
1.167570e-17
1.840367e-18
1.073795e-17
-5.046708e-19
4.722011e-18
6.719634e-18
1.440260e-18
-8.491579e-20
-7.744783e-18
1.245305e-17
1.188108e-17
8.543226e-18
3.410755e-18
3.459479e-17
1.354886e-16
5.122224e-16
1.642186e-15
5.350761e-15
1.638945e-14
4.815102e-14
1.355923e-13
3.670433e-13
9.558719e-13
2.398890e-12
5.809674e-12
1.359501e-11
3.077792e-11
6.748878e-11
1.434925e-10
2.961248e-10
5.937218e-10
1.157559e-09
2.196443e-09
4.059358e-09
7.312714e-09
1.284958e-08
2.203821e-08
0.000000e+00
0.000000e+00
6.838393e-18
3.966224e-18
4.895723e-18
4.272010e-19
2.551800e-18
3.601318e-18
3.504838e-18
5.828741e-18
6.206694e-19
1.932293e-18
4.989106e-18
5.353767e-18
-2.491934e-19
3.455934e-18
-4.387217e-18
2.009109e-18
2.075235e-18
2.551679e-18
-2.532439e-18
3.932700e-18
4.463647e-18
4.875383e-19
3.988121e-18
-1.631259e-19
9.813017e-19
4.921346e-18
4.937735e-18
7.267223e-18
8.121122e-18
7.482923e-18
6.838717e-18
8.948494e-18
6.120229e-18
8.402557e-20
6.819864e-18
-4.470822e-18
4.690248e-18
7.196287e-18
-1.187456e-18
1.614603e-18
7.450130e-18
8.211306e-18
-9.552370e-18
1.494476e-17
1.739579e-17
1.025102e-16
4.531077e-16
1.501137e-15
4.951513e-15
1.527946e-14
4.515117e-14
1.280144e-13
3.483426e-13
9.115845e-13
2.297305e-12
5.583964e-12
1.310887e-11
2.976151e-11
6.542374e-11
1.394111e-10
2.882713e-10
5.789968e-10
1.130638e-09
2.148422e-09
3.975732e-09
7.170471e-09
1.261314e-08
2.165400e-08
0.000000e+00
0.000000e+00
4.717546e-18
4.054397e-18
-1.107004e-18
-3.477341e-18
2.886442e-18
2.388252e-18
3.874693e-18
4.265826e-18
8.740456e-19
3.077198e-18
4.248222e-18
2.071970e-18
3.142212e-18
2.464327e-18
-1.153847e-18
3.117936e-18
3.422554e-18
3.586072e-18
2.148948e-18
3.003177e-18
-1.706704e-18
1.628250e-19
6.772245e-18
1.145393e-18
2.133776e-18
2.141005e-18
6.280209e-18
9.618522e-18
8.984144e-18
2.753223e-18
-2.342138e-18
1.089877e-18
3.024004e-18
-2.271848e-18
7.710638e-18
-4.219305e-19
1.071021e-17
2.178765e-18
3.526929e-18
-1.580483e-18
2.209873e-18
-2.054044e-18
1.435107e-17
1.128005e-17
1.085159e-17
1.190909e-16
3.941236e-16
1.374414e-15
4.440219e-15
1.390678e-14
4.158913e-14
1.188641e-13
3.257385e-13
8.576790e-13
2.173258e-12
5.307779e-12
1.251307e-11
2.851407e-11
6.288655e-11
1.343928e-10
2.786095e-10
5.608750e-10
1.097500e-09
2.089307e-09
3.872790e-09
6.995390e-09
1.232217e-08
2.118128e-08
0.000000e+00
0.000000e+00
2.469825e-18
9.284239e-19
4.147757e-18
2.693872e-18
2.817881e-18
1.182421e-18
1.402770e-18
4.335994e-18
2.189548e-18
3.818777e-18
3.698673e-18
4.781614e-18
4.726235e-18
1.325912e-18
3.330542e-18
1.579668e-18
2.856814e-18
3.081741e-18
6.615956e-18
3.251525e-19
2.361665e-18
1.469278e-18
-8.185632e-19
-2.956287e-18
1.812867e-18
8.600144e-18
-0.000000e+00
8.324055e-19
8.848609e-18
7.029449e-18
-1.928779e-18
4.116396e-18
4.332819e-18
2.485017e-18
-3.626177e-18
8.356896e-18
-2.112325e-20
-4.545858e-19
-7.450127e-18
-4.926435e-19
3.086882e-18
1.582800e-18
-6.990086e-18
-1.587951e-18
2.656285e-17
8.528905e-17
3.222423e-16
1.173695e-15
3.923131e-15
1.239609e-14
3.750273e-14
1.082861e-13
2.994847e-13
7.948751e-13
2.028177e-12
4.983742e-12
1.181210e-11
2.704362e-11
5.989109e-11
1.284607e-10
2.671777e-10
5.394179e-10
1.058244e-09
2.019251e-09
3.750769e-09
6.787838e-09
1.197724e-08
2.062092e-08
0.000000e+00
0.000000e+00
-1.416097e-18
6.251411e-18
5.631462e-18
5.717721e-18
2.410713e-19
3.471587e-18
5.617729e-19
4.865447e-18
4.060368e-18
3.174981e-19
4.713289e-18
3.137319e-18
1.523278e-18
3.968320e-18
5.022614e-18
-4.113158e-18
4.014676e-18
-1.136634e-18
-2.764384e-18
-9.775485e-19
3.593120e-18
-1.638028e-18
1.150420e-17
3.628375e-18
1.092389e-17
7.805702e-18
9.829356e-18
5.847130e-18
5.861021e-18
8.725122e-18
5.462131e-18
1.249554e-17
-1.516265e-18
-5.543586e-18
-3.354031e-18
6.353834e-18
-6.664283e-18
-3.698975e-19
-8.772868e-18
-4.442905e-18
-1.387221e-19
-5.590705e-18
-3.534249e-19
-4.773552e-18
4.591780e-17
5.980256e-17
2.758080e-16
9.740505e-16
3.333189e-15
1.079749e-14
3.301420e-14
9.658917e-14
2.701155e-13
7.241962e-13
1.863998e-12
4.615542e-12
1.101299e-11
2.536269e-11
5.645950e-11
1.216533e-10
2.540413e-10
5.147353e-10
1.013049e-09
1.938548e-09
3.610137e-09
6.548549e-09
1.157947e-08
1.997464e-08
0.000000e+00
0.000000e+00
3.921465e-18
5.888766e-18
2.957186e-18
4.753933e-18
2.858922e-18
5.296600e-18
2.555416e-18
2.943445e-18
5.500543e-18
-2.782929e-18
2.145511e-18
2.090072e-18
1.903176e-18
5.022680e-18
6.240877e-18
-1.257215e-18
1.461584e-18
4.147490e-18
3.911480e-18
-0.000000e+00
2.294561e-18
-1.480121e-18
7.592345e-18
8.613499e-18
8.642843e-18
8.336109e-18
5.851039e-18
9.801984e-18
9.232989e-18
6.220828e-18
6.523079e-18
2.443290e-18
6.070861e-18
7.846533e-18
7.196506e-18
5.911947e-19
-1.351904e-18
1.244209e-18
6.326845e-18
-7.200740e-18
-3.291829e-18
6.045980e-18
1.258056e-17
8.588841e-18
1.660152e-17
6.754864e-17
2.088115e-16
7.996680e-16
2.743858e-15
9.066547e-15
2.826999e-14
8.402897e-14
2.383634e-13
6.469241e-13
1.683447e-12
4.208272e-12
1.012523e-11
2.348872e-11
5.262320e-11
1.140260e-10
2.392962e-10
4.869903e-10
9.621886e-10
1.847645e-09
3.451618e-09
6.278673e-09
1.113065e-08
1.924518e-08
0.000000e+00
0.000000e+00
-7.838754e-19
3.178135e-18
-1.325322e-18
1.284927e-18
8.661777e-19
-1.977987e-19
-1.189645e-18
1.775322e-18
4.510852e-18
5.973491e-18
-4.655823e-19
1.731078e-18
4.516404e-18
4.376861e-18
8.922821e-19
3.004779e-18
2.846963e-18
-2.853096e-18
6.375511e-18
6.231834e-18
9.709894e-18
4.459857e-18
7.791589e-18
2.994142e-18
3.837496e-18
-8.280694e-18
3.520774e-18
-4.114986e-18
3.574292e-18
-1.136664e-18
5.856971e-18
-2.677545e-18
3.881419e-18
-1.836046e-18
6.481289e-18
-7.021873e-19
5.038242e-18
7.386631e-18
3.775116e-18
6.547334e-18
-6.135122e-19
8.003886e-18
5.319250e-18
6.317379e-18
1.337155e-17
3.329185e-17
1.791577e-16
6.109837e-16
2.181439e-15
7.399419e-15
2.346322e-14
7.104119e-14
2.050078e-13
5.649568e-13
1.489934e-12
3.768554e-12
9.161182e-12
2.144450e-11
4.842310e-11
1.056515e-10
2.230698e-10
4.564019e-10
9.060330e-10
1.747158e-09
3.276214e-09
5.979813e-09
1.063331e-08
1.843641e-08
0.000000e+00
0.000000e+00
-1.304681e-18
7.619291e-19
2.619915e-19
3.805045e-18
1.474318e-18
-8.202907e-19
3.644867e-18
6.916770e-18
1.927897e-18
1.862314e-18
3.036962e-18
-1.093664e-18
4.822787e-18
5.962484e-18
-7.309926e-19
-3.498514e-18
-8.154600e-19
3.598212e-18
1.640982e-18
7.411293e-18
5.124699e-18
3.981986e-18
6.492579e-18
2.755084e-18
-3.850249e-18
2.180850e-18
-2.940809e-18
3.323448e-18
2.863747e-18
5.479342e-18
6.263080e-18
-6.287245e-18
6.637882e-18
4.243605e-18
8.568479e-18
3.643559e-18
2.714718e-18
2.394912e-18
-2.442400e-18
2.330038e-17
6.951900e-19
5.153723e-18
-5.412739e-18
1.203356e-17
3.758906e-18
3.108423e-17
1.240024e-16
4.485363e-16
1.680657e-15
5.744642e-15
1.879450e-14
5.815051e-14
1.711721e-13
4.804418e-13
1.287855e-12
3.304881e-12
8.136433e-12
1.925839e-11
4.391033e-11
9.662044e-11
2.055205e-10
4.232438e-10
8.450471e-10
1.637863e-09
3.085201e-09
5.654023e-09
1.009069e-08
1.755334e-08
0.000000e+00
0.000000e+00
5.989811e-18
2.190735e-18
2.139769e-18
4.403424e-18
3.481169e-18
1.099211e-18
5.592327e-18
4.559105e-18
-1.027297e-18
3.867027e-18
-2.430362e-19
2.431711e-18
6.490203e-19
3.330531e-18
4.882812e-18
5.384019e-18
2.781862e-18
6.239791e-18
8.405866e-18
8.603404e-18
-4.151427e-18
8.830539e-18
7.185445e-18
5.946899e-18
-6.294742e-18
8.490772e-18
5.597644e-18
6.235161e-18
-1.347063e-17
6.581025e-18
1.160626e-18
2.110932e-20
1.367176e-18
9.102233e-18
3.717514e-18
1.441788e-18
4.308074e-18
7.269494e-18
3.494236e-18
6.091264e-18
-8.446946e-18
1.017101e-17
2.702170e-18
-1.335743e-18
7.946991e-18
2.290000e-17
7.265980e-17
3.442027e-16
1.206885e-15
4.327964e-15
1.445530e-14
4.584639e-14
1.381822e-13
3.961487e-13
1.082872e-12
2.827837e-12
7.070731e-12
1.696567e-11
3.914713e-11
8.704169e-11
1.868374e-10
3.878409e-10
7.797838e-10
1.520688e-09
2.880107e-09
5.303776e-09
9.506698e-09
1.660205e-08
0.000000e+00
0.000000e+00
6.253642e-18
3.474263e-18
1.539933e-18
7.094508e-19
3.046537e-18
1.670982e-18
-1.178979e-18
4.301429e-18
4.504716e-18
5.873331e-19
-4.012380e-18
3.326424e-18
6.418223e-18
-2.279199e-18
4.733216e-18
4.256888e-18
4.765180e-18
4.948542e-19
3.477429e-18
1.662017e-18
4.335605e-18
5.100620e-18
5.531957e-18
9.909752e-18
6.855034e-18
1.023177e-17
1.150558e-17
-6.494872e-18
7.089046e-18
-1.952366e-18
1.161207e-18
2.840300e-18
-1.528629e-18
6.424216e-18
6.710049e-18
5.897853e-18
-2.878657e-18
9.062999e-19
7.048225e-18
-1.238125e-17
3.446562e-18
-2.906684e-20
8.268441e-18
-4.539058e-18
6.135138e-18
2.060368e-17
6.016350e-17
2.261432e-16
8.715286e-16
3.095723e-15
1.068266e-14
3.473838e-14
1.073715e-13
3.153310e-13
8.817217e-13
2.350772e-12
5.988761e-12
1.461028e-11
3.420965e-11
7.704502e-11
1.672403e-10
3.505653e-10
7.108701e-10
1.396682e-09
2.662666e-09
4.931892e-09
8.885845e-09
1.558958e-08
0.000000e+00
0.000000e+00
1.869602e-18
3.486804e-18
4.564227e-18
3.253970e-18
3.882064e-18
2.327569e-18
3.233605e-18
2.834370e-19
4.698591e-18
1.985935e-18
4.584203e-18
3.656420e-18
3.256799e-18
4.245250e-18
6.061262e-18
2.630931e-18
1.320699e-18
5.635113e-18
5.156862e-18
1.151589e-17
1.071137e-17
5.955212e-18
8.403198e-20
3.282020e-18
6.150161e-18
-3.625782e-18
6.328079e-19
9.116759e-18
3.557203e-18
-7.311561e-18
1.010610e-17
2.854281e-18
8.054047e-18
-2.586727e-18
-1.463581e-17
-7.297747e-18
-3.474024e-18
-2.939525e-18
-2.198918e-18
2.982607e-18
7.211112e-18
5.283767e-20
1.046992e-17
1.235197e-17
1.312291e-18
7.069492e-18
3.183847e-17
1.642212e-16
5.596179e-16
2.153739e-15
7.541132e-15
2.520905e-14
8.002740e-14
2.413510e-13
6.921251e-13
1.889817e-12
4.921360e-12
1.224788e-11
2.919290e-11
6.678831e-11
1.469877e-10
3.118389e-10
6.389977e-10
1.266982e-09
2.434748e-09
4.541417e-09
8.233019e-09
1.452364e-08
0.000000e+00
0.000000e+00
1.904859e-18
1.675988e-19
-4.137810e-19
5.319616e-18
6.646131e-18
3.334743e-18
4.423521e-18
6.784430e-18
2.107506e-18
4.056968e-19
1.300218e-18
3.583364e-18
1.143419e-18
-1.639135e-19
2.961997e-18
5.452567e-18
3.151928e-18
2.497552e-18
7.182844e-18
8.793673e-18
3.693151e-18
-8.408290e-19
9.430122e-18
8.428487e-20
1.145057e-17
4.979546e-18
4.960543e-19
3.388986e-18
9.287450e-18
-8.871730e-19
-7.520680e-18
1.172555e-17
-1.343490e-17
2.235044e-18
1.786092e-18
4.088584e-18
8.325137e-18
5.562448e-18
1.241390e-19
-4.389156e-18
-2.350790e-19
1.351484e-17
-6.678518e-18
5.970380e-19
-1.470800e-18
5.468930e-18
2.106774e-17
9.296742e-17
3.990656e-16
1.409350e-15
5.139757e-15
1.752343e-14
5.714806e-14
1.770781e-13
5.217311e-13
1.462565e-12
3.905247e-12
9.947533e-12
2.421800e-11
5.647107e-11
1.263958e-10
2.721539e-10
5.649329e-10
1.132796e-09
2.198281e-09
4.135458e-09
7.553211e-09
1.341214e-08
0.000000e+00
0.000000e+00
5.664342e-18
6.091593e-18
5.847047e-18
-1.468604e-18
6.730044e-19
2.803829e-18
-2.268142e-18
-8.105601e-20
-3.489067e-18
6.257981e-18
4.561766e-18
3.268288e-18
1.148096e-18
7.904827e-18
3.472940e-18
8.302476e-18
6.333139e-18
-3.176652e-18
8.130239e-18
1.142326e-17
9.927768e-18
5.812568e-18
-6.028893e-18
1.210845e-17
-6.015122e-18
3.357047e-18
5.849982e-18
2.656214e-18
1.029876e-17
-7.962413e-18
-3.406989e-19
1.245439e-17
-4.826795e-18
1.506282e-17
-1.658671e-18
7.883884e-19
-3.103326e-19
8.094928e-19
-8.490957e-19
5.633274e-18
-3.435927e-18
-1.529134e-18
1.774769e-18
1.078363e-17
1.109587e-17
1.437552e-17
2.193350e-17
4.933169e-17
2.214610e-16
9.233740e-16
3.361668e-15
1.171602e-14
3.911916e-14
1.243965e-13
3.767665e-13
1.085828e-12
2.979340e-12
7.789842e-12
1.943510e-11
4.634990e-11
1.058725e-10
2.321259e-10
4.895795e-10
9.954478e-10
1.955243e-09
3.717049e-09
6.851191e-09
1.226266e-08
0.000000e+00
0.000000e+00
5.957899e-18
-2.561428e-18
1.267460e-18
4.776683e-18
1.639715e-18
-2.106024e-18
-4.052626e-20
4.949604e-18
1.869439e-18
5.703583e-18
5.721992e-18
2.297667e-18
1.384484e-17
7.449058e-18
9.141834e-18
1.050998e-17
3.765267e-18
9.311288e-18
-7.144593e-18
-3.493634e-18
4.340518e-18
8.182376e-18
1.139497e-17
1.028118e-17
1.689435e-19
2.619198e-18
1.700619e-18
-1.875087e-18
1.224425e-17
-1.774893e-18
-1.576822e-18
-3.058553e-18
-5.904413e-18
-3.830990e-18
-1.428826e-18
-6.034700e-19
7.064470e-19
-9.731489e-18
5.741000e-18
7.742462e-18
9.004472e-19
-3.773352e-18
4.256523e-18
3.245202e-18
-6.416567e-19
1.261178e-17
2.601212e-18
4.861315e-17
1.671046e-16
5.732143e-16
2.125428e-15
7.550457e-15
2.574760e-14
8.385540e-14
2.605397e-13
7.718679e-13
2.178299e-12
5.857165e-12
1.501540e-11
3.674198e-11
8.594975e-11
1.925736e-10
4.141135e-10
8.565527e-10
1.707820e-09
3.289213e-09
6.131333e-09
1.108184e-08
0.000000e+00
0.000000e+00
2.565292e-18
2.458360e-18
5.705039e-18
6.113205e-18
2.207126e-18
2.350364e-18
4.787182e-18
5.120986e-18
1.792970e-18
4.252524e-18
2.299222e-18
4.783937e-18
1.325600e-17
-1.497499e-18
6.178808e-18
7.872597e-18
2.686557e-18
2.943972e-18
7.496787e-18
3.836672e-18
2.594901e-18
-2.005285e-18
-4.540010e-19
2.112185e-19
1.161904e-19
-9.243444e-18
-2.746804e-19
-4.727831e-19
-6.751094e-18
1.334098e-17
3.182654e-18
-8.715745e-20
2.633123e-18
1.148812e-18
7.183083e-18
3.105496e-18
1.029575e-17
1.107690e-17
-6.302609e-18
7.746593e-18
-3.709462e-18
4.335046e-18
-6.468078e-19
3.944136e-18
-1.539099e-18
7.003872e-18
1.058528e-17
2.785653e-17
8.579952e-17
3.429457e-16
1.329806e-15
4.742507e-15
1.637852e-14
5.439740e-14
1.729890e-13
5.256245e-13
1.524546e-12
4.217363e-12
1.112542e-11
2.799831e-11
6.727901e-11
1.545779e-10
3.401566e-10
7.183374e-10
1.458862e-09
2.855449e-09
5.397951e-09
9.875322e-09
0.000000e+00
0.000000e+00
6.175250e-18
5.594832e-18
-2.332807e-18
4.656840e-19
5.389098e-18
4.949125e-18
-4.064410e-19
1.793356e-18
3.109040e-18
6.080868e-18
8.916305e-18
8.957296e-18
1.016087e-17
8.525730e-18
6.455018e-18
3.276974e-18
1.077408e-17
7.248244e-18
2.404294e-18
4.094246e-18
-2.090298e-18
-1.309486e-18
3.696889e-19
9.507506e-18
1.056467e-19
4.706727e-18
2.002091e-18
-1.096119e-18
-7.923559e-20
-8.274554e-18
5.387617e-19
-5.500933e-18
-5.173217e-18
2.883550e-18
3.411501e-18
-3.479978e-18
1.219780e-18
6.198927e-18
3.270916e-18
-5.926456e-18
8.510513e-18
-1.134252e-17
-1.309217e-18
4.141343e-18
3.774383e-18
-5.355351e-18
1.432145e-17
1.816876e-17
4.542835e-17
2.193712e-16
8.031376e-16
2.910198e-15
1.013596e-14
3.419627e-14
1.107743e-13
3.440392e-13
1.022844e-12
2.906953e-12
7.889651e-12
2.044019e-11
5.055409e-11
1.194397e-10
2.698634e-10
5.839842e-10
1.212587e-09
2.420810e-09
4.656594e-09
8.648892e-09
0.000000e+00
0.000000e+00
5.678821e-18
5.560967e-18
5.435792e-18
2.228272e-18
3.488313e-18
6.096517e-18
-1.630630e-19
-4.911310e-19
8.223650e-19
5.454292e-18
1.311904e-17
1.000588e-17
3.012384e-18
8.810921e-18
8.157234e-18
1.061303e-17
8.179835e-18
7.933341e-18
-4.391128e-18
1.203792e-18
-1.996246e-18
3.200808e-18
3.597245e-18
-1.225538e-18
4.432034e-18
-1.685096e-18
5.131722e-18
5.414100e-18
-7.088171e-18
4.653021e-18
2.350150e-19
4.538971e-18
-7.852327e-18
-4.393258e-18
1.346946e-17
9.450828e-19
1.377955e-18
-1.029456e-19
-1.088532e-17
8.314076e-18
-4.647772e-18
2.842397e-18
3.166908e-20
5.510259e-18
2.195607e-18
5.868930e-18
1.376971e-17
9.833847e-18
4.801029e-17
1.379887e-16
4.752210e-16
1.752761e-15
6.180052e-15
2.098269e-14
6.888397e-14
2.176543e-13
6.606098e-13
1.922721e-12
5.358048e-12
1.427876e-11
3.636291e-11
8.847664e-11
2.057536e-10
4.576989e-10
9.751798e-10
1.993320e-09
3.916391e-09
7.411524e-09
0.000000e+00
0.000000e+00
5.960393e-18
5.283329e-18
-2.430404e-19
4.379848e-18
5.120624e-18
6.197288e-18
-2.293030e-18
2.962927e-18
1.025852e-17
9.643424e-18
1.135391e-17
4.356179e-18
6.635763e-18
9.426455e-18
8.133610e-18
1.020893e-17
6.712141e-18
4.307863e-18
8.966753e-18
4.457746e-18
2.524884e-18
2.017873e-18
1.133075e-17
1.753718e-18
8.472454e-18
4.901531e-18
-4.489302e-18
8.555581e-19
9.664057e-18
2.745905e-19
2.138509e-18
1.098231e-18
3.376341e-18
2.119665e-18
7.670511e-18
7.949899e-18
6.138967e-18
6.896125e-18
5.787428e-18
-1.042381e-18
-3.615211e-19
-3.308991e-18
-5.984496e-18
-9.208695e-19
4.150414e-18