# vtk DataFile Version 3.0
Resultado Projeto 3
ASCII
DATASET STRUCTURED_GRID
DIMENSIONS 140 60 1 
POINTS 8400 double
0.000000e+00 0.000000e+00 0.000000e+00
2.517986e-02 0.000000e+00 0.000000e+00
5.035971e-02 0.000000e+00 0.000000e+00
7.553957e-02 0.000000e+00 0.000000e+00
1.007194e-01 0.000000e+00 0.000000e+00
1.258993e-01 0.000000e+00 0.000000e+00
1.510791e-01 0.000000e+00 0.000000e+00
1.762590e-01 0.000000e+00 0.000000e+00
2.014388e-01 0.000000e+00 0.000000e+00
2.266187e-01 0.000000e+00 0.000000e+00
2.517986e-01 0.000000e+00 0.000000e+00
2.769784e-01 0.000000e+00 0.000000e+00
3.021583e-01 0.000000e+00 0.000000e+00
3.273381e-01 0.000000e+00 0.000000e+00
3.525180e-01 0.000000e+00 0.000000e+00
3.776978e-01 0.000000e+00 0.000000e+00
4.028777e-01 0.000000e+00 0.000000e+00
4.280576e-01 0.000000e+00 0.000000e+00
4.532374e-01 0.000000e+00 0.000000e+00
4.784173e-01 0.000000e+00 0.000000e+00
5.035971e-01 0.000000e+00 0.000000e+00
5.287770e-01 0.000000e+00 0.000000e+00
5.539568e-01 0.000000e+00 0.000000e+00
5.791367e-01 0.000000e+00 0.000000e+00
6.043165e-01 0.000000e+00 0.000000e+00
6.294964e-01 0.000000e+00 0.000000e+00
6.546763e-01 0.000000e+00 0.000000e+00
6.798561e-01 0.000000e+00 0.000000e+00
7.050360e-01 0.000000e+00 0.000000e+00
7.302158e-01 0.000000e+00 0.000000e+00
7.553957e-01 0.000000e+00 0.000000e+00
7.805755e-01 0.000000e+00 0.000000e+00
8.057554e-01 0.000000e+00 0.000000e+00
8.309353e-01 0.000000e+00 0.000000e+00
8.561151e-01 0.000000e+00 0.000000e+00
8.812950e-01 0.000000e+00 0.000000e+00
9.064748e-01 0.000000e+00 0.000000e+00
9.316547e-01 0.000000e+00 0.000000e+00
9.568345e-01 0.000000e+00 0.000000e+00
9.820144e-01 0.000000e+00 0.000000e+00
1.007194e+00 0.000000e+00 0.000000e+00
1.032374e+00 0.000000e+00 0.000000e+00
1.057554e+00 0.000000e+00 0.000000e+00
1.082734e+00 0.000000e+00 0.000000e+00
1.107914e+00 0.000000e+00 0.000000e+00
1.133094e+00 0.000000e+00 0.000000e+00
1.158273e+00 0.000000e+00 0.000000e+00
1.183453e+00 0.000000e+00 0.000000e+00
1.208633e+00 0.000000e+00 0.000000e+00
1.233813e+00 0.000000e+00 0.000000e+00
1.258993e+00 0.000000e+00 0.000000e+00
1.284173e+00 0.000000e+00 0.000000e+00
1.309353e+00 0.000000e+00 0.000000e+00
1.334532e+00 0.000000e+00 0.000000e+00
1.359712e+00 0.000000e+00 0.000000e+00
1.384892e+00 0.000000e+00 0.000000e+00
1.410072e+00 0.000000e+00 0.000000e+00
1.435252e+00 0.000000e+00 0.000000e+00
1.460432e+00 0.000000e+00 0.000000e+00
1.485612e+00 0.000000e+00 0.000000e+00
1.510791e+00 0.000000e+00 0.000000e+00
1.535971e+00 0.000000e+00 0.000000e+00
1.561151e+00 0.000000e+00 0.000000e+00
1.586331e+00 0.000000e+00 0.000000e+00
1.611511e+00 0.000000e+00 0.000000e+00
1.636691e+00 0.000000e+00 0.000000e+00
1.661871e+00 0.000000e+00 0.000000e+00
1.687050e+00 0.000000e+00 0.000000e+00
1.712230e+00 0.000000e+00 0.000000e+00
1.737410e+00 0.000000e+00 0.000000e+00
1.762590e+00 0.000000e+00 0.000000e+00
1.787770e+00 0.000000e+00 0.000000e+00
1.812950e+00 0.000000e+00 0.000000e+00
1.838129e+00 0.000000e+00 0.000000e+00
1.863309e+00 0.000000e+00 0.000000e+00
1.888489e+00 0.000000e+00 0.000000e+00
1.913669e+00 0.000000e+00 0.000000e+00
1.938849e+00 0.000000e+00 0.000000e+00
1.964029e+00 0.000000e+00 0.000000e+00
1.989209e+00 0.000000e+00 0.000000e+00
2.014388e+00 0.000000e+00 0.000000e+00
2.039568e+00 0.000000e+00 0.000000e+00
2.064748e+00 0.000000e+00 0.000000e+00
2.089928e+00 0.000000e+00 0.000000e+00
2.115108e+00 0.000000e+00 0.000000e+00
2.140288e+00 0.000000e+00 0.000000e+00
2.165468e+00 0.000000e+00 0.000000e+00
2.190647e+00 0.000000e+00 0.000000e+00
2.215827e+00 0.000000e+00 0.000000e+00
2.241007e+00 0.000000e+00 0.000000e+00
2.266187e+00 0.000000e+00 0.000000e+00
2.291367e+00 0.000000e+00 0.000000e+00
2.316547e+00 0.000000e+00 0.000000e+00
2.341727e+00 0.000000e+00 0.000000e+00
2.366906e+00 0.000000e+00 0.000000e+00
2.392086e+00 0.000000e+00 0.000000e+00
2.417266e+00 0.000000e+00 0.000000e+00
2.442446e+00 0.000000e+00 0.000000e+00
2.467626e+00 0.000000e+00 0.000000e+00
2.492806e+00 0.000000e+00 0.000000e+00
2.517986e+00 0.000000e+00 0.000000e+00
2.543165e+00 0.000000e+00 0.000000e+00
2.568345e+00 0.000000e+00 0.000000e+00
2.593525e+00 0.000000e+00 0.000000e+00
2.618705e+00 0.000000e+00 0.000000e+00
2.643885e+00 0.000000e+00 0.000000e+00
2.669065e+00 0.000000e+00 0.000000e+00
2.694245e+00 0.000000e+00 0.000000e+00
2.719424e+00 0.000000e+00 0.000000e+00
2.744604e+00 0.000000e+00 0.000000e+00
2.769784e+00 0.000000e+00 0.000000e+00
2.794964e+00 0.000000e+00 0.000000e+00
2.820144e+00 0.000000e+00 0.000000e+00
2.845324e+00 0.000000e+00 0.000000e+00
2.870504e+00 0.000000e+00 0.000000e+00
2.895683e+00 0.000000e+00 0.000000e+00
2.920863e+00 0.000000e+00 0.000000e+00
2.946043e+00 0.000000e+00 0.000000e+00
2.971223e+00 0.000000e+00 0.000000e+00
2.996403e+00 0.000000e+00 0.000000e+00
3.021583e+00 0.000000e+00 0.000000e+00
3.046763e+00 0.000000e+00 0.000000e+00
3.071942e+00 0.000000e+00 0.000000e+00
3.097122e+00 0.000000e+00 0.000000e+00
3.122302e+00 0.000000e+00 0.000000e+00
3.147482e+00 0.000000e+00 0.000000e+00
3.172662e+00 0.000000e+00 0.000000e+00
3.197842e+00 0.000000e+00 0.000000e+00
3.223022e+00 0.000000e+00 0.000000e+00
3.248201e+00 0.000000e+00 0.000000e+00
3.273381e+00 0.000000e+00 0.000000e+00
3.298561e+00 0.000000e+00 0.000000e+00
3.323741e+00 0.000000e+00 0.000000e+00
3.348921e+00 0.000000e+00 0.000000e+00
3.374101e+00 0.000000e+00 0.000000e+00
3.399281e+00 0.000000e+00 0.000000e+00
3.424460e+00 0.000000e+00 0.000000e+00
3.449640e+00 0.000000e+00 0.000000e+00
3.474820e+00 0.000000e+00 0.000000e+00
3.500000e+00 0.000000e+00 0.000000e+00
0.000000e+00 1.694915e-02 0.000000e+00
2.517986e-02 1.694915e-02 0.000000e+00
5.035971e-02 1.694915e-02 0.000000e+00
7.553957e-02 1.694915e-02 0.000000e+00
1.007194e-01 1.694915e-02 0.000000e+00
1.258993e-01 1.694915e-02 0.000000e+00
1.510791e-01 1.694915e-02 0.000000e+00
1.762590e-01 1.694915e-02 0.000000e+00
2.014388e-01 1.694915e-02 0.000000e+00
2.266187e-01 1.694915e-02 0.000000e+00
2.517986e-01 1.694915e-02 0.000000e+00
2.769784e-01 1.694915e-02 0.000000e+00
3.021583e-01 1.694915e-02 0.000000e+00
3.273381e-01 1.694915e-02 0.000000e+00
3.525180e-01 1.694915e-02 0.000000e+00
3.776978e-01 1.694915e-02 0.000000e+00
4.028777e-01 1.694915e-02 0.000000e+00
4.280576e-01 1.694915e-02 0.000000e+00
4.532374e-01 1.694915e-02 0.000000e+00
4.784173e-01 1.694915e-02 0.000000e+00
5.035971e-01 1.694915e-02 0.000000e+00
5.287770e-01 1.694915e-02 0.000000e+00
5.539568e-01 1.694915e-02 0.000000e+00
5.791367e-01 1.694915e-02 0.000000e+00
6.043165e-01 1.694915e-02 0.000000e+00
6.294964e-01 1.694915e-02 0.000000e+00
6.546763e-01 1.694915e-02 0.000000e+00
6.798561e-01 1.694915e-02 0.000000e+00
7.050360e-01 1.694915e-02 0.000000e+00
7.302158e-01 1.694915e-02 0.000000e+00
7.553957e-01 1.694915e-02 0.000000e+00
7.805755e-01 1.694915e-02 0.000000e+00
8.057554e-01 1.694915e-02 0.000000e+00
8.309353e-01 1.694915e-02 0.000000e+00
8.561151e-01 1.694915e-02 0.000000e+00
8.812950e-01 1.694915e-02 0.000000e+00
9.064748e-01 1.694915e-02 0.000000e+00
9.316547e-01 1.694915e-02 0.000000e+00
9.568345e-01 1.694915e-02 0.000000e+00
9.820144e-01 1.694915e-02 0.000000e+00
1.007194e+00 1.694915e-02 0.000000e+00
1.032374e+00 1.694915e-02 0.000000e+00
1.057554e+00 1.694915e-02 0.000000e+00
1.082734e+00 1.694915e-02 0.000000e+00
1.107914e+00 1.694915e-02 0.000000e+00
1.133094e+00 1.694915e-02 0.000000e+00
1.158273e+00 1.694915e-02 0.000000e+00
1.183453e+00 1.694915e-02 0.000000e+00
1.208633e+00 1.694915e-02 0.000000e+00
1.233813e+00 1.694915e-02 0.000000e+00
1.258993e+00 1.694915e-02 0.000000e+00
1.284173e+00 1.694915e-02 0.000000e+00
1.309353e+00 1.694915e-02 0.000000e+00
1.334532e+00 1.694915e-02 0.000000e+00
1.359712e+00 1.694915e-02 0.000000e+00
1.384892e+00 1.694915e-02 0.000000e+00
1.410072e+00 1.694915e-02 0.000000e+00
1.435252e+00 1.694915e-02 0.000000e+00
1.460432e+00 1.694915e-02 0.000000e+00
1.485612e+00 1.694915e-02 0.000000e+00
1.510791e+00 1.694915e-02 0.000000e+00
1.535971e+00 1.694915e-02 0.000000e+00
1.561151e+00 1.694915e-02 0.000000e+00
1.586331e+00 1.694915e-02 0.000000e+00
1.611511e+00 1.694915e-02 0.000000e+00
1.636691e+00 1.694915e-02 0.000000e+00
1.661871e+00 1.694915e-02 0.000000e+00
1.687050e+00 1.694915e-02 0.000000e+00
1.712230e+00 1.694915e-02 0.000000e+00
1.737410e+00 1.694915e-02 0.000000e+00
1.762590e+00 1.694915e-02 0.000000e+00
1.787770e+00 1.694915e-02 0.000000e+00
1.812950e+00 1.694915e-02 0.000000e+00
1.838129e+00 1.694915e-02 0.000000e+00
1.863309e+00 1.694915e-02 0.000000e+00
1.888489e+00 1.694915e-02 0.000000e+00
1.913669e+00 1.694915e-02 0.000000e+00
1.938849e+00 1.694915e-02 0.000000e+00
1.964029e+00 1.694915e-02 0.000000e+00
1.989209e+00 1.694915e-02 0.000000e+00
2.014388e+00 1.694915e-02 0.000000e+00
2.039568e+00 1.694915e-02 0.000000e+00
2.064748e+00 1.694915e-02 0.000000e+00
2.089928e+00 1.694915e-02 0.000000e+00
2.115108e+00 1.694915e-02 0.000000e+00
2.140288e+00 1.694915e-02 0.000000e+00
2.165468e+00 1.694915e-02 0.000000e+00
2.190647e+00 1.694915e-02 0.000000e+00
2.215827e+00 1.694915e-02 0.000000e+00
2.241007e+00 1.694915e-02 0.000000e+00
2.266187e+00 1.694915e-02 0.000000e+00
2.291367e+00 1.694915e-02 0.000000e+00
2.316547e+00 1.694915e-02 0.000000e+00
2.341727e+00 1.694915e-02 0.000000e+00
2.366906e+00 1.694915e-02 0.000000e+00
2.392086e+00 1.694915e-02 0.000000e+00
2.417266e+00 1.694915e-02 0.000000e+00
2.442446e+00 1.694915e-02 0.000000e+00
2.467626e+00 1.694915e-02 0.000000e+00
2.492806e+00 1.694915e-02 0.000000e+00
2.517986e+00 1.694915e-02 0.000000e+00
2.543165e+00 1.694915e-02 0.000000e+00
2.568345e+00 1.694915e-02 0.000000e+00
2.593525e+00 1.694915e-02 0.000000e+00
2.618705e+00 1.694915e-02 0.000000e+00
2.643885e+00 1.694915e-02 0.000000e+00
2.669065e+00 1.694915e-02 0.000000e+00
2.694245e+00 1.694915e-02 0.000000e+00
2.719424e+00 1.694915e-02 0.000000e+00
2.744604e+00 1.694915e-02 0.000000e+00
2.769784e+00 1.694915e-02 0.000000e+00
2.794964e+00 1.694915e-02 0.000000e+00
2.820144e+00 1.694915e-02 0.000000e+00
[...]
POINT_DATA 8400
SCALARS RES_Cont double
LOOKUP_TABLE default
0.000000e+00
0.000000e+00
0.000000e+00
0.000000e+00
0.000000e+00
0.000000e+00
0.000000e+00
0.000000e+00
0.000000e+00
0.000000e+00
0.000000e+00
0.000000e+00
0.000000e+00
0.000000e+00
0.000000e+00
0.000000e+00
0.000000e+00
0.000000e+00
0.000000e+00
0.000000e+00
0.000000e+00
0.000000e+00
0.000000e+00
0.000000e+00
0.000000e+00
0.000000e+00
0.000000e+00
0.000000e+00
0.000000e+00
0.000000e+00
0.000000e+00
0.000000e+00
0.000000e+00
0.000000e+00
0.000000e+00
0.000000e+00
0.000000e+00
0.000000e+00
0.000000e+00
0.000000e+00
0.000000e+00
0.000000e+00
0.000000e+00
0.000000e+00
0.000000e+00
0.000000e+00
0.000000e+00
0.000000e+00
0.000000e+00
0.000000e+00
0.000000e+00
0.000000e+00
0.000000e+00
0.000000e+00
0.000000e+00
0.000000e+00
0.000000e+00
0.000000e+00
0.000000e+00
0.000000e+00
0.000000e+00
0.000000e+00
0.000000e+00
0.000000e+00
0.000000e+00
0.000000e+00
0.000000e+00
0.000000e+00
0.000000e+00
0.000000e+00
0.000000e+00
0.000000e+00
0.000000e+00
0.000000e+00
0.000000e+00
0.000000e+00
0.000000e+00
0.000000e+00
0.000000e+00
0.000000e+00
0.000000e+00
0.000000e+00
0.000000e+00
0.000000e+00
0.000000e+00
0.000000e+00
0.000000e+00
0.000000e+00
0.000000e+00
0.000000e+00
0.000000e+00
0.000000e+00
0.000000e+00
0.000000e+00
0.000000e+00
0.000000e+00
0.000000e+00
0.000000e+00
0.000000e+00
0.000000e+00
0.000000e+00
0.000000e+00
0.000000e+00
0.000000e+00
0.000000e+00
0.000000e+00
0.000000e+00
0.000000e+00
0.000000e+00
0.000000e+00
0.000000e+00
0.000000e+00
0.000000e+00
0.000000e+00
0.000000e+00
0.000000e+00
0.000000e+00
0.000000e+00
0.000000e+00
0.000000e+00
0.000000e+00
0.000000e+00
0.000000e+00
0.000000e+00
0.000000e+00
0.000000e+00
0.000000e+00
0.000000e+00
0.000000e+00
0.000000e+00
0.000000e+00
0.000000e+00
0.000000e+00
0.000000e+00
0.000000e+00
0.000000e+00
0.000000e+00
0.000000e+00
0.000000e+00
0.000000e+00
0.000000e+00
-0.000000e+00
-0.000000e+00
-0.000000e+00
-0.000000e+00
-0.000000e+00
-0.000000e+00
3.951571e-19
-2.766100e-18
2.082467e-18
-9.089700e-20
-4.179766e-18
-8.663792e-19
2.416391e-18
2.578590e-19
1.793992e-18
-1.484016e-18
-2.249020e-18
-5.253776e-19
1.909380e-18
3.100927e-19
4.132212e-18
-7.431019e-19
1.258638e-18
-1.145104e-18
3.624877e-19
4.338613e-18
-2.664903e-18
-6.307513e-19
1.747706e-18
1.664343e-18
-2.373046e-18
-8.182680e-19
3.644665e-18
4.348978e-18
6.850600e-20
-3.599504e-19
2.530652e-18
4.542930e-18
9.264816e-19
4.364301e-18
4.312424e-19
5.605568e-18
-1.215097e-18
-6.468968e-19
-1.707081e-19
-2.613317e-18
3.155002e-18
-5.051511e-18
4.711450e-19
-2.185003e-18
-6.476768e-19
-1.876376e-18
2.172128e-18
-2.729610e-18
4.968800e-18
6.628842e-18
7.430606e-18
5.099364e-17
1.331599e-16
-1.440475e-16
-4.209955e-15
-3.071225e-14
-1.594812e-13
-6.563902e-13
-2.037658e-12
-2.998444e-12
1.456016e-11
1.283324e-10
5.057973e-10
1.447409e-09
3.546624e-09
7.979191e-09
1.707770e-08
3.539164e-08
7.145851e-08
1.406549e-07
2.694499e-07
5.011390e-07
9.027698e-07
1.572441e-06
2.645350e-06
4.295919e-06
6.732375e-06
1.017998e-05
1.485054e-05
2.089926e-05
2.837534e-05
3.717735e-05
4.702720e-05
5.747347e-05
6.792790e-05
7.772913e-05
8.621992e-05
9.282165e-05
9.709298e-05
9.876659e-05
9.776491e-05
9.420057e-05
8.836768e-05
8.072734e-05
7.188640e-05
6.256384e-05
5.353744e-05
4.556605e-05
3.929049e-05
3.512771e-05
3.318397e-05
3.321641e-05
3.466462e-05
3.675457e-05
3.865361e-05
3.963841e-05
3.923341e-05
3.728827e-05
3.398025e-05
2.974711e-05
2.516997e-05
2.083483e-05
1.720414e-05
1.452676e-05
1.280592e-05
1.182967e-05
1.125186e-05
1.069779e-05
9.863448e-06
8.581876e-06
6.842602e-06
4.765629e-06
2.544228e-06
3.777654e-07
-1.584526e-06
-3.274358e-06
-4.705131e-06
-5.947848e-06
-7.094159e-06
-8.220403e-06
-9.363592e-06
-1.051438e-05
0.000000e+00
0.000000e+00
-0.000000e+00
-0.000000e+00
-0.000000e+00
-0.000000e+00
-0.000000e+00
3.951571e-19
-5.927357e-19
1.778207e-18
7.903142e-19
-4.164934e-18
-6.994172e-19
5.684329e-18
1.580628e-18
-2.141795e-18
-1.256773e-18
-1.647168e-18
3.473138e-18
-1.936871e-18
-2.948863e-18
-2.256690e-18
-1.188830e-18
-6.450608e-19
-7.159215e-19
-5.300042e-19
-3.108179e-19
-1.920235e-18
-4.955105e-19
-4.141488e-19
3.671948e-19
-3.355834e-18
-7.602581e-19
1.035842e-18
5.316550e-19
2.620430e-18
1.400238e-18
-3.294901e-19
-2.740523e-18
-3.314508e-18
1.882661e-18
4.323399e-18
6.310880e-19
1.829253e-18
-2.690236e-18
6.021639e-19
-2.574211e-18
-4.211754e-18
-4.677050e-19
2.301132e-18
-2.769498e-18
2.737741e-18
1.798306e-18
5.391588e-18
3.338939e-18
2.121462e-18
1.359254e-17
1.903375e-17
5.353555e-18
1.431210e-17
-1.527120e-16
-1.845110e-15
-1.204168e-14
-5.981301e-14
-2.372082e-13
-6.652939e-13
-2.926569e-13
9.977805e-12
6.034671e-11
1.961660e-10
4.894396e-10
1.134169e-09
2.699582e-09
6.575870e-09
1.545821e-08
3.408851e-08
7.092265e-08
1.409473e-07
2.698245e-07
4.996738e-07
8.962901e-07
1.556868e-06
2.616382e-06
4.249754e-06
6.666143e-06
1.009173e-05
1.473892e-05
2.076339e-05
2.821499e-05
3.699368e-05
4.682344e-05
5.725532e-05
6.770321e-05
7.750710e-05
8.601007e-05
9.263304e-05
9.693396e-05
9.864498e-05
9.768856e-05
9.417788e-05
8.840774e-05
8.083952e-05
7.207895e-05
6.284169e-05
5.389941e-05
4.600213e-05
3.978028e-05
3.564112e-05
3.368469e-05
3.366808e-05
3.503833e-05
3.703557e-05
3.884530e-05
3.976208e-05
3.932383e-05
3.738597e-05
3.412238e-05
2.995887e-05
2.545864e-05
2.118769e-05
1.759098e-05
1.490665e-05
1.313659e-05
1.207716e-05
1.139791e-05
1.074294e-05
9.825270e-06
8.489078e-06
6.727006e-06
4.654448e-06
2.454760e-06
3.157055e-07
-1.623191e-06
-3.298982e-06
-4.725346e-06
-5.969524e-06
-7.117544e-06
-8.240659e-06
-9.373094e-06
-1.050566e-05
0.000000e+00
0.000000e+00
-0.000000e+00
-0.000000e+00
-0.000000e+00
-0.000000e+00
-0.000000e+00
-7.903142e-19
3.860674e-18
3.465517e-18
-2.281951e-19
-1.459115e-18
6.233522e-19
1.808823e-18
-3.433948e-18
-2.306852e-18
-4.598872e-18
-1.852367e-18
1.842022e-18
-4.875665e-19
-2.390579e-18
1.287457e-18
1.190351e-18
3.096671e-18
2.665746e-18
1.324736e-18
-3.529972e-19
-4.207158e-18
-5.929693e-18
4.328461e-18
2.861876e-18
2.774320e-18
2.733928e-18
3.609116e-18
3.222058e-18
-3.006155e-18
-1.764448e-18
-2.120989e-18
6.230882e-18
3.837747e-18
1.958387e-18
-2.147524e-18
4.193447e-18
-1.426273e-18
-3.012307e-18
9.232190e-19
7.318930e-19
-2.917106e-20
-2.234911e-18
-1.704219e-18
-4.072657e-18
-5.433647e-18
-2.943923e-18
-1.612789e-17
2.478099e-19
4.799543e-18
3.181191e-18
1.830834e-17
8.447084e-18
-1.105940e-16
-9.216324e-16
-5.552083e-15
-2.618634e-14
-9.787708e-14
-2.311183e-13
3.046706e-13
6.426335e-12
3.199495e-11
9.466446e-11
2.185310e-10
4.558439e-10
9.349439e-10
2.002044e-09
4.664000e-09
1.165293e-08
2.878491e-08
6.576346e-08
1.376939e-07
2.690558e-07
4.995281e-07
8.917061e-07
1.539991e-06
2.578062e-06
4.181403e-06
6.561198e-06
9.946290e-06
1.455161e-05
2.053480e-05
2.794739e-05
3.669119e-05
4.649256e-05
5.690527e-05
6.734580e-05
7.715582e-05
8.567901e-05
9.233591e-05
9.668376e-05
9.845428e-05
9.757024e-05
9.414580e-05
8.847692e-05
8.102517e-05
7.239425e-05
6.329411e-05
5.448629e-05
4.670664e-05
4.056934e-05
3.646699e-05
3.449110e-05
3.440023e-05
3.565452e-05
3.751712e-05
3.920164e-05
4.002928e-05
3.955663e-05
3.764529e-05
3.446120e-05
3.040965e-05
2.602511e-05
2.184300e-05
1.828298e-05
1.556928e-05
1.370478e-05
1.250142e-05
1.165465e-05
1.083786e-05
9.789118e-06
8.367549e-06
6.568086e-06
4.496944e-06
2.321131e-06
2.106609e-07
-1.708737e-06
-3.380629e-06
-4.817397e-06
-6.079243e-06
-7.242993e-06
-8.372190e-06
-9.497324e-06
-1.061007e-05
0.000000e+00
0.000000e+00
-0.000000e+00
-0.000000e+00
-0.000000e+00
-0.000000e+00
3.951571e-19
-1.778207e-18
5.018387e-19
-3.951571e-19
-1.702142e-18
-2.690035e-18
7.754822e-19
-2.369990e-18
-1.867199e-18
3.089002e-18
3.250249e-18
1.704966e-19
5.714947e-19
2.361383e-18
4.102155e-18
1.042750e-18
-2.586798e-18
-1.789318e-18
-5.517370e-19
1.185972e-19
6.896002e-19
1.203048e-18
-3.231563e-18
3.073232e-18
4.240086e-18
-3.184482e-19
2.391011e-18
3.350016e-18
1.247173e-18
-2.246804e-18
-4.076988e-18
8.175530e-19
-4.860191e-19
1.684053e-18
4.768983e-19
2.023000e-18
-4.423099e-19
-1.870285e-19
4.723910e-18
-2.215222e-18
-1.405600e-18
1.815539e-18
3.841479e-18
-2.077196e-18
7.683424e-19
6.452860e-18
-5.567400e-19
-2.442930e-18
-1.228552e-17
-9.181864e-18
-1.651239e-18
-2.350815e-18
-4.739137e-17
-4.182873e-16
-2.474941e-15
-1.137267e-14
-4.036043e-14
-7.517676e-14
3.173506e-13
3.598403e-12
1.581502e-11
4.487284e-11
1.040957e-10
2.220174e-10
4.589347e-10
9.375814e-10
1.902426e-09
3.888355e-09
8.340549e-09
1.966738e-08
4.926301e-08
1.177393e-07
2.530584e-07
4.929791e-07
8.938562e-07
1.541083e-06
2.560303e-06
4.123629e-06
6.444711e-06
9.759181e-06
1.429043e-05
2.020370e-05
2.755576e-05
3.625122e-05
4.601774e-05
5.641000e-05
6.684545e-05
7.666679e-05
8.521831e-05
9.192066e-05
9.633085e-05
9.818063e-05
9.739348e-05
9.408503e-05
8.855273e-05
8.125840e-05
7.280283e-05
6.388818e-05
5.526215e-05
4.764130e-05
4.161782e-05
3.756464e-05
3.556202e-05
3.537090e-05
3.646948e-05
3.815226e-05
3.967087e-05
4.038225e-05
3.986787e-05
3.799725e-05
3.492528e-05
3.102935e-05
2.680515e-05
2.274711e-05
1.924113e-05
1.649310e-05
1.450753e-05
1.311731e-05
1.205232e-05
1.102446e-05
9.804359e-06
8.270087e-06
6.418677e-06
4.343481e-06
2.189547e-06
1.035511e-07
-1.806437e-06
-3.491676e-06
-4.961723e-06
-6.266306e-06
-7.468968e-06
-8.622068e-06
-9.750308e-06
-1.084584e-05
0.000000e+00
0.000000e+00
-0.000000e+00
-0.000000e+00
-0.000000e+00
-0.000000e+00
-1.383050e-18
5.927357e-19
-4.362513e-18
-5.836460e-18
-1.732758e-18
-1.580628e-18
1.521301e-19
-3.357883e-18
-3.626354e-19
3.826247e-18
-2.424831e-18
4.931968e-18
-2.904785e-18
-1.327021e-19
1.485018e-18
2.474472e-18
2.063970e-19
-8.126944e-19
-1.446083e-18
-7.662183e-20
1.535274e-19
1.539927e-18
1.239842e-18
4.251063e-18
5.347668e-18
3.051649e-18
6.317201e-19
-1.476622e-18
3.682130e-18
-3.162900e-18
-2.832589e-18
-6.602518e-19
-2.827738e-18
-9.270144e-19
-2.499251e-18
-2.975698e-18
2.331071e-19
-7.819157e-19
-4.174811e-18
4.081855e-19
-2.432631e-18
4.855327e-18
-1.810445e-18
2.141356e-18
3.356093e-18
1.332825e-18
5.018952e-18
1.224442e-17
7.785461e-19
-7.631009e-18
-1.571596e-17
-4.367549e-17
-1.892667e-16
-1.044818e-15
-4.726416e-15
-1.575400e-14
-1.861406e-14
2.223143e-13
1.862541e-12
7.418959e-12
2.045092e-11
4.799138e-11
1.058979e-10
2.289531e-10
4.885924e-10
1.023210e-09
2.086515e-09
4.122811e-09
7.937440e-09
1.537603e-08
3.223372e-08
7.707383e-08
1.918726e-07
4.346346e-07
8.642777e-07
1.550707e-06
2.594574e-06
4.143953e-06
6.401896e-06
9.610977e-06
1.401401e-05
1.979922e-05
2.704216e-05
3.565787e-05
4.537620e-05
5.574858e-05
6.618765e-05
7.603227e-05
8.462478e-05
9.138541e-05
9.587172e-05
9.781674e-05
9.714586e-05
9.397707e-05
8.860997e-05
8.150676e-05
7.326476e-05
6.457658e-05
5.617295e-05
4.874661e-05
4.286253e-05
3.886911e-05
3.683233e-05
3.651553e-05
3.741868e-05
3.887467e-05
4.018215e-05
4.074287e-05
4.017019e-05
3.834496e-05
3.541003e-05
3.170978e-05
2.769302e-05
2.380391e-05
2.038626e-05
1.762214e-05
1.551615e-05
1.392472e-05
1.261771e-05
1.135235e-05
9.937807e-06
8.274650e-06
6.362448e-06
4.279257e-06
2.143987e-06
7.559212e-08
-1.838673e-06
-3.558737e-06
-5.089936e-06
-6.468242e-06
-7.739719e-06
-8.941495e-06
-1.008946e-05
-1.117466e-05
0.000000e+00
0.000000e+00
-0.000000e+00
-0.000000e+00
-0.000000e+00
-0.000000e+00
1.975786e-18
-3.572198e-18
-2.477624e-18
2.720651e-18
-4.741885e-18
-4.255831e-18
-5.227939e-18
1.337601e-18
9.673453e-19
9.851687e-19
1.359636e-18
-4.197339e-18
-1.634434e-20
-2.966194e-18
-2.020985e-18
-3.930343e-18
-3.967699e-18
-5.166526e-19
-2.578344e-18
1.346780e-18
3.157404e-18
-1.919200e-18
-1.111374e-18
-2.197058e-18
2.458834e-18
-2.400677e-19
-1.092547e-18
-2.277676e-19
-2.579132e-18
-2.156118e-18
-5.721395e-18
7.038016e-20
1.334610e-18
4.618798e-19
-1.164852e-18
-1.510500e-18
-4.263281e-18
-5.036848e-18
2.308143e-18
-7.334104e-19
1.959671e-18
3.435244e-18
5.886379e-18
5.356122e-18
5.228732e-18
1.103745e-17
1.023013e-18
1.085775e-17
1.309222e-17
5.224278e-18
-3.324713e-17
-9.863093e-17
-4.314320e-16
-1.868651e-15
-5.735388e-15
-8.663038e-16
1.325805e-13
9.061493e-13
3.334680e-12
9.035188e-12
2.152570e-11
4.887122e-11
1.092029e-10
2.413196e-10
5.244866e-10
1.113427e-09
2.294473e-09
4.565013e-09
8.732306e-09
1.605725e-08
2.880766e-08
5.333948e-08
1.134217e-07
2.811850e-07
6.827732e-07
1.431678e-06
2.599226e-06
4.266327e-06
6.565630e-06
9.702522e-06
1.393225e-05
1.949092e-05
2.651066e-05
3.495019e-05
4.455998e-05
5.489042e-05
6.533988e-05
7.522987e-05
8.388928e-05
9.073145e-05
9.531281e-05
9.736901e-05
9.682983e-05
9.381808e-05
8.863723e-05
8.175077e-05
7.375243e-05
6.532398e-05
5.717658e-05
4.997537e-05
4.425343e-05
4.033000e-05
3.825333e-05
3.778816e-05
3.845838e-05
3.964060e-05
4.068823e-05
4.105643e-05
4.039809e-05
3.861049e-05
3.582587e-05
3.235315e-05
2.858863e-05
2.491861e-05
2.163708e-05
1.889608e-05
1.669686e-05
1.491905e-05
1.337505e-05
1.187146e-05
1.026028e-05
8.467612e-06
6.496554e-06
4.408721e-06
2.294196e-06
2.410228e-07
-1.686916e-06
-3.459293e-06
-5.076428e-06
-6.558038e-06
-7.929086e-06
-9.207565e-06
-1.039717e-05
-1.148561e-05
0.000000e+00
0.000000e+00
-0.000000e+00
-0.000000e+00
-0.000000e+00
1.975786e-19
1.094574e-18
-3.556414e-18
4.712221e-19
4.513690e-18
1.139070e-18
2.856997e-18
8.812112e-19
1.727996e-18
4.742136e-19
1.675737e-18
-5.488397e-18
-1.327808e-18
-2.532925e-18
2.070610e-19
-4.688545e-18
-3.854506e-18
-4.145058e-18
1.647755e-18
3.128144e-18
-2.789265e-18
-4.161122e-18
-1.627872e-18
-4.204551e-18
-4.530236e-18
-3.557488e-18
-5.917167e-18
4.812399e-19
-6.779225e-19
2.698864e-18
8.411133e-19
6.973852e-19
4.296169e-18
-1.016875e-18
-1.311616e-18
-4.936061e-18
-4.968972e-18
-3.445220e-18
-2.355103e-18
-3.513244e-18
-1.811907e-18
-6.722309e-18
1.513561e-18
6.289132e-18
5.110672e-18
6.677354e-18
-1.962296e-18
3.673374e-18
-8.878925e-18
-1.010728e-17
2.987896e-18
-3.915236e-17
-1.696171e-16
-7.129009e-16
-1.906808e-15
2.922402e-15
7.113504e-14
4.167822e-13
1.441976e-12
3.880549e-12
9.425501e-12
2.201656e-11
5.061097e-11
1.147716e-10
2.557856e-10
5.578783e-10
1.186518e-09
2.453652e-09
4.919599e-09
9.530772e-09
1.776267e-08
3.171000e-08
5.426812e-08
9.142274e-08
1.666097e-07
3.750772e-07
9.563386e-07
2.186526e-06
4.156822e-06
6.832037e-06
1.022088e-05
1.445034e-05
1.975946e-05
2.638530e-05
3.441987e-05
4.371514e-05
5.386716e-05
6.426906e-05
7.420742e-05
8.296990e-05
8.993855e-05
9.465416e-05
9.685020e-05
9.646257e-05
9.362322e-05
8.864387e-05
8.199227e-05
7.425992e-05
6.611748e-05
5.825474e-05
5.130602e-05
4.576835e-05
4.192730e-05
3.980952e-05
3.917882e-05
3.958338e-05
4.044688e-05
4.118365e-05
4.131016e-05
4.052703e-05
3.875470e-05
3.611879e-05
3.289321e-05
2.941873e-05
2.601821e-05
2.292892e-05
2.026615e-05
1.802261e-05
1.609829e-05
1.434773e-05
1.262871e-05
1.083888e-05
8.932699e-06
6.918589e-06
4.841972e-06
2.762834e-06
7.360465e-07
-1.200362e-06
-3.027703e-06
-4.741987e-06
-6.345959e-06
-7.841529e-06
-9.224899e-06
-1.048493e-05
-1.160395e-05
0.000000e+00
0.000000e+00
-0.000000e+00
-0.000000e+00
-0.000000e+00
-1.383050e-18
3.951571e-18
2.370943e-18
1.975786e-19
-4.058253e-18
-2.477624e-18
8.051462e-19
3.612884e-18
7.545253e-19
-4.515328e-18
1.262481e-18
-8.139869e-19
-2.797176e-18
1.731729e-18
-1.517235e-18
-3.029095e-18
-1.894020e-18
2.821182e-18
4.383741e-18
-6.564316e-18
-8.792442e-19
-4.308280e-18
5.347367e-18
-4.047046e-19
-2.662821e-18
-9.120768e-19
2.078206e-18
-4.346365e-18
1.314360e-18
6.883576e-19
4.010188e-18
1.826195e-18
4.638228e-18
5.609155e-19
1.269190e-18
-9.377648e-19
-5.746332e-18
-3.265720e-18
-2.449116e-18
-9.306516e-19
-4.781681e-18
-6.953509e-18
-1.745779e-18
-4.470619e-18
4.968637e-18
2.842967e-18
2.461820e-18
-1.167018e-17
-1.515140e-17
-6.458461e-18
-1.749614e-17
-5.093750e-17
-2.527755e-16
-5.599943e-16
2.611162e-15
3.511700e-14
1.820327e-13
6.017857e-13
1.622968e-12
4.031617e-12
9.689212e-12
2.289139e-11
5.320256e-11
1.212543e-10
2.701613e-10
5.872020e-10
1.243753e-09
2.566238e-09
5.155330e-09
1.006835e-08
1.905640e-08
3.478058e-08
6.081218e-08
1.012190e-07
1.609416e-07
2.571205e-07
4.819629e-07
1.181465e-06
2.979084e-06
6.194042e-06
1.053911e-05
1.561586e-05
2.126580e-05
2.763529e-05
3.501434e-05
4.355491e-05
5.309213e-05
6.313134e-05
7.295690e-05
8.178827e-05
8.892437e-05
9.384164e-05
9.624016e-05
9.604940e-05
9.341083e-05
8.865064e-05
8.224790e-05
7.479697e-05
6.695985e-05
5.940493e-05
5.273366e-05
4.740346e-05
4.366179e-05
4.150909e-05
4.070466e-05
4.081918e-05
4.132454e-05
4.170019e-05
4.153086e-05
4.057330e-05
3.877943e-05
3.627466e-05
3.330133e-05
3.014450e-05
2.706006e-05
2.422266e-05
2.170379e-05
1.948087e-05
1.746905e-05
1.556217e-05
1.366887e-05
1.173424e-05
9.744005e-06
7.714775e-06
5.677582e-06
3.662483e-06
1.689626e-06
-2.316144e-07
-2.097462e-06
-3.902533e-06
-5.634543e-06
-7.273082e-06
-8.792226e-06
-1.016499e-05
-1.136719e-05
0.000000e+00
0.000000e+00
-0.000000e+00
3.951571e-19
-1.975786e-19
-1.489731e-18
2.173364e-18
-3.541582e-18
-1.565796e-18
-4.103701e-18
-7.903142e-19
-2.221670e-18
3.724872e-18
3.879993e-18
-1.334476e-18
-2.741734e-18
-3.737038e-18
8.663946e-19
-5.228320e-19
4.711190e-18
4.915219e-18
4.684933e-18
2.252990e-18
2.575645e-18
-4.216717e-20
3.101851e-18
1.158522e-18
-2.747363e-18
2.435983e-18
-1.573406e-18
2.615466e-19
4.887267e-18
4.579358e-18
2.200026e-18
2.041208e-18
-7.641722e-19
-4.008101e-18
-4.669918e-18
-2.309630e-18
2.690697e-18
-8.227547e-19
7.769445e-19
2.291148e-18
1.000140e-18
-2.250402e-18
3.723992e-19
-1.688218e-18
-4.215257e-18
1.083298e-18
2.683892e-18
-2.711710e-18
-3.439167e-18
-1.010134e-17
-2.679991e-20
-5.099513e-18
-2.508499e-17
-7.787465e-17
-1.011739e-16
1.642229e-15
1.615995e-14
7.578564e-14
2.429805e-13
6.614977e-13
1.684105e-12
4.162148e-12
1.009518e-11
2.403371e-11
5.602579e-11
1.275600e-10
2.831455e-10
6.122833e-10
1.290126e-09
2.650610e-09
5.313219e-09
1.039093e-08
1.980158e-08
3.666248e-08
6.562477e-08
1.127510e-07
1.842738e-07
2.841788e-07
4.184920e-07
6.487599e-07
1.331306e-06
3.515230e-06
8.303771e-06
1.532589e-05
2.320494e-05
3.096117e-05
3.841209e-05
4.598271e-05
5.413909e-05
6.294139e-05
7.196040e-05
8.045108e-05
8.760001e-05
9.272981e-05
9.541528e-05
9.551544e-05
9.315056e-05
8.865537e-05
8.252719e-05
7.537355e-05
6.785619e-05
6.062680e-05
5.425504e-05
4.915681e-05
4.553750e-05
4.336626e-05
4.239271e-05
4.220611e-05
4.232506e-05
4.229601e-05
4.177731e-05
4.059000e-05
3.872681e-05
3.632162e-05
3.359137e-05
3.076801e-05
2.803910e-05
2.551181e-05
2.320662e-05
2.107757e-05
1.904765e-05
1.704487e-05
1.502655e-05
1.298608e-05
1.094355e-05
8.927842e-06
6.959101e-06
5.039175e-06
3.152838e-06
1.277919e-06
-6.011435e-07
-2.482586e-06
-4.343750e-06
-6.145447e-06
-7.841632e-06
-9.389938e-06
-1.075891e-05
0.000000e+00
0.000000e+00
-0.000000e+00
-1.185471e-18
9.878928e-19
1.778207e-18
-2.884755e-19
1.185471e-18
-1.306985e-18
-2.203981e-18
-1.688672e-19
2.726910e-18
3.181938e-18
-2.379925e-18
-7.058013e-19
1.082809e-18
4.645648e-18
-2.623957e-18
-5.200868e-18
-1.486190e-18
9.352707e-19
4.385294e-18
2.114603e-18
2.232188e-18
2.255426e-18
-6.901351e-20
-3.223917e-18
4.140432e-18
4.356489e-18
2.625161e-18
3.638875e-18
-4.625457e-19
3.767099e-18
-5.311583e-19
-4.719552e-18
-2.815978e-18
-2.712656e-18
-1.870651e-18
-2.581927e-18
-6.127656e-19
4.408573e-18
2.822090e-18
4.581580e-19
-1.070365e-18
3.322683e-18
1.742005e-17
4.482298e-18
1.343313e-17
1.392502e-17
5.917779e-18
-1.185485e-17
-1.075826e-17
-2.854327e-18
-1.229989e-17
-1.251443e-17
-1.884770e-17
1.133184e-17
8.927365e-16
7.011961e-15
3.020070e-14
9.511758e-14
2.628177e-13
6.865517e-13
1.743527e-12
4.337273e-12
1.057111e-11
2.520133e-11
5.865085e-11
1.330518e-10
2.940201e-10
6.329747e-10
1.328267e-09
2.718815e-09
5.432067e-09
1.059886e-08
2.019700e-08
3.755669e-08
6.799284e-08
1.193234e-07
2.016069e-07
3.247730e-07
4.928583e-07
6.980425e-07
9.530870e-07
1.508543e-06
3.585523e-06
9.616070e-06
2.030939e-05
3.289610e-05
4.429096e-05
5.328259e-05
6.039473e-05
6.685605e-05
7.346507e-05
8.019788e-05
8.642202e-05
9.130985e-05
9.417245e-05
9.463491e-05
9.267129e-05
8.855598e-05
8.278125e-05