# vtk DataFile Version 3.0
Resultado Projeto 3
ASCII
DATASET STRUCTURED_GRID
DIMENSIONS 140 60 1 
POINTS 8400 double
0.000000e+00 0.000000e+00 0.000000e+00
2.517986e-02 0.000000e+00 0.000000e+00
5.035971e-02 0.000000e+00 0.000000e+00
7.553957e-02 0.000000e+00 0.000000e+00
1.007194e-01 0.000000e+00 0.000000e+00
1.258993e-01 0.000000e+00 0.000000e+00
1.510791e-01 0.000000e+00 0.000000e+00
1.762590e-01 0.000000e+00 0.000000e+00
2.014388e-01 0.000000e+00 0.000000e+00
2.266187e-01 0.000000e+00 0.000000e+00
2.517986e-01 0.000000e+00 0.000000e+00
2.769784e-01 0.000000e+00 0.000000e+00
3.021583e-01 0.000000e+00 0.000000e+00
3.273381e-01 0.000000e+00 0.000000e+00
3.525180e-01 0.000000e+00 0.000000e+00
3.776978e-01 0.000000e+00 0.000000e+00
4.028777e-01 0.000000e+00 0.000000e+00
4.280576e-01 0.000000e+00 0.000000e+00
4.532374e-01 0.000000e+00 0.000000e+00
4.784173e-01 0.000000e+00 0.000000e+00
5.035971e-01 0.000000e+00 0.000000e+00
5.287770e-01 0.000000e+00 0.000000e+00
5.539568e-01 0.000000e+00 0.000000e+00
5.791367e-01 0.000000e+00 0.000000e+00
6.043165e-01 0.000000e+00 0.000000e+00
6.294964e-01 0.000000e+00 0.000000e+00
6.546763e-01 0.000000e+00 0.000000e+00
6.798561e-01 0.000000e+00 0.000000e+00
7.050360e-01 0.000000e+00 0.000000e+00
7.302158e-01 0.000000e+00 0.000000e+00
7.553957e-01 0.000000e+00 0.000000e+00
7.805755e-01 0.000000e+00 0.000000e+00
8.057554e-01 0.000000e+00 0.000000e+00
8.309353e-01 0.000000e+00 0.000000e+00
8.561151e-01 0.000000e+00 0.000000e+00
8.812950e-01 0.000000e+00 0.000000e+00
9.064748e-01 0.000000e+00 0.000000e+00
9.316547e-01 0.000000e+00 0.000000e+00
9.568345e-01 0.000000e+00 0.000000e+00
9.820144e-01 0.000000e+00 0.000000e+00
1.007194e+00 0.000000e+00 0.000000e+00
1.032374e+00 0.000000e+00 0.000000e+00
1.057554e+00 0.000000e+00 0.000000e+00
1.082734e+00 0.000000e+00 0.000000e+00
1.107914e+00 0.000000e+00 0.000000e+00
1.133094e+00 0.000000e+00 0.000000e+00
1.158273e+00 0.000000e+00 0.000000e+00
1.183453e+00 0.000000e+00 0.000000e+00
1.208633e+00 0.000000e+00 0.000000e+00
1.233813e+00 0.000000e+00 0.000000e+00
1.258993e+00 0.000000e+00 0.000000e+00
1.284173e+00 0.000000e+00 0.000000e+00
1.309353e+00 0.000000e+00 0.000000e+00
1.334532e+00 0.000000e+00 0.000000e+00
1.359712e+00 0.000000e+00 0.000000e+00
1.384892e+00 0.000000e+00 0.000000e+00
1.410072e+00 0.000000e+00 0.000000e+00
1.435252e+00 0.000000e+00 0.000000e+00
1.460432e+00 0.000000e+00 0.000000e+00
1.485612e+00 0.000000e+00 0.000000e+00
1.510791e+00 0.000000e+00 0.000000e+00
1.535971e+00 0.000000e+00 0.000000e+00
1.561151e+00 0.000000e+00 0.000000e+00
1.586331e+00 0.000000e+00 0.000000e+00
1.611511e+00 0.000000e+00 0.000000e+00
1.636691e+00 0.000000e+00 0.000000e+00
1.661871e+00 0.000000e+00 0.000000e+00
1.687050e+00 0.000000e+00 0.000000e+00
1.712230e+00 0.000000e+00 0.000000e+00
1.737410e+00 0.000000e+00 0.000000e+00
1.762590e+00 0.000000e+00 0.000000e+00
1.787770e+00 0.000000e+00 0.000000e+00
1.812950e+00 0.000000e+00 0.000000e+00
1.838129e+00 0.000000e+00 0.000000e+00
1.863309e+00 0.000000e+00 0.000000e+00
1.888489e+00 0.000000e+00 0.000000e+00
1.913669e+00 0.000000e+00 0.000000e+00
1.938849e+00 0.000000e+00 0.000000e+00
1.964029e+00 0.000000e+00 0.000000e+00
1.989209e+00 0.000000e+00 0.000000e+00
2.014388e+00 0.000000e+00 0.000000e+00
2.039568e+00 0.000000e+00 0.000000e+00
2.064748e+00 0.000000e+00 0.000000e+00
2.089928e+00 0.000000e+00 0.000000e+00
2.115108e+00 0.000000e+00 0.000000e+00
2.140288e+00 0.000000e+00 0.000000e+00
2.165468e+00 0.000000e+00 0.000000e+00
2.190647e+00 0.000000e+00 0.000000e+00
2.215827e+00 0.000000e+00 0.000000e+00
2.241007e+00 0.000000e+00 0.000000e+00
2.266187e+00 0.000000e+00 0.000000e+00
2.291367e+00 0.000000e+00 0.000000e+00
2.316547e+00 0.000000e+00 0.000000e+00
2.341727e+00 0.000000e+00 0.000000e+00
2.366906e+00 0.000000e+00 0.000000e+00
2.392086e+00 0.000000e+00 0.000000e+00
2.417266e+00 0.000000e+00 0.000000e+00
2.442446e+00 0.000000e+00 0.000000e+00
2.467626e+00 0.000000e+00 0.000000e+00
2.492806e+00 0.000000e+00 0.000000e+00
2.517986e+00 0.000000e+00 0.000000e+00
2.543165e+00 0.000000e+00 0.000000e+00
2.568345e+00 0.000000e+00 0.000000e+00
2.593525e+00 0.000000e+00 0.000000e+00
2.618705e+00 0.000000e+00 0.000000e+00
2.643885e+00 0.000000e+00 0.000000e+00
2.669065e+00 0.000000e+00 0.000000e+00
2.694245e+00 0.000000e+00 0.000000e+00
2.719424e+00 0.000000e+00 0.000000e+00
2.744604e+00 0.000000e+00 0.000000e+00
2.769784e+00 0.000000e+00 0.000000e+00
2.794964e+00 0.000000e+00 0.000000e+00
2.820144e+00 0.000000e+00 0.000000e+00
2.845324e+00 0.000000e+00 0.000000e+00
2.870504e+00 0.000000e+00 0.000000e+00
2.895683e+00 0.000000e+00 0.000000e+00
2.920863e+00 0.000000e+00 0.000000e+00
2.946043e+00 0.000000e+00 0.000000e+00
2.971223e+00 0.000000e+00 0.000000e+00
2.996403e+00 0.000000e+00 0.000000e+00
3.021583e+00 0.000000e+00 0.000000e+00
3.046763e+00 0.000000e+00 0.000000e+00
3.071942e+00 0.000000e+00 0.000000e+00
3.097122e+00 0.000000e+00 0.000000e+00
3.122302e+00 0.000000e+00 0.000000e+00
3.147482e+00 0.000000e+00 0.000000e+00
3.172662e+00 0.000000e+00 0.000000e+00
3.197842e+00 0.000000e+00 0.000000e+00
3.223022e+00 0.000000e+00 0.000000e+00
3.248201e+00 0.000000e+00 0.000000e+00
3.273381e+00 0.000000e+00 0.000000e+00
3.298561e+00 0.000000e+00 0.000000e+00
3.323741e+00 0.000000e+00 0.000000e+00
3.348921e+00 0.000000e+00 0.000000e+00
3.374101e+00 0.000000e+00 0.000000e+00
3.399281e+00 0.000000e+00 0.000000e+00
3.424460e+00 0.000000e+00 0.000000e+00
3.449640e+00 0.000000e+00 0.000000e+00
3.474820e+00 0.000000e+00 0.000000e+00
3.500000e+00 0.000000e+00 0.000000e+00
0.000000e+00 1.694915e-02 0.000000e+00
2.517986e-02 1.694915e-02 0.000000e+00
5.035971e-02 1.694915e-02 0.000000e+00
7.553957e-02 1.694915e-02 0.000000e+00
1.007194e-01 1.694915e-02 0.000000e+00
1.258993e-01 1.694915e-02 0.000000e+00
1.510791e-01 1.694915e-02 0.000000e+00
1.762590e-01 1.694915e-02 0.000000e+00
2.014388e-01 1.694915e-02 0.000000e+00
2.266187e-01 1.694915e-02 0.000000e+00
2.517986e-01 1.694915e-02 0.000000e+00
2.769784e-01 1.694915e-02 0.000000e+00
3.021583e-01 1.694915e-02 0.000000e+00
3.273381e-01 1.694915e-02 0.000000e+00
3.525180e-01 1.694915e-02 0.000000e+00
3.776978e-01 1.694915e-02 0.000000e+00
4.028777e-01 1.694915e-02 0.000000e+00
4.280576e-01 1.694915e-02 0.000000e+00
4.532374e-01 1.694915e-02 0.000000e+00
4.784173e-01 1.694915e-02 0.000000e+00
5.035971e-01 1.694915e-02 0.000000e+00
5.287770e-01 1.694915e-02 0.000000e+00
5.539568e-01 1.694915e-02 0.000000e+00
5.791367e-01 1.694915e-02 0.000000e+00
6.043165e-01 1.694915e-02 0.000000e+00
6.294964e-01 1.694915e-02 0.000000e+00
6.546763e-01 1.694915e-02 0.000000e+00
6.798561e-01 1.694915e-02 0.000000e+00
7.050360e-01 1.694915e-02 0.000000e+00
7.302158e-01 1.694915e-02 0.000000e+00
7.553957e-01 1.694915e-02 0.000000e+00
7.805755e-01 1.694915e-02 0.000000e+00
8.057554e-01 1.694915e-02 0.000000e+00
8.309353e-01 1.694915e-02 0.000000e+00
8.561151e-01 1.694915e-02 0.000000e+00
8.812950e-01 1.694915e-02 0.000000e+00
9.064748e-01 1.694915e-02 0.000000e+00
9.316547e-01 1.694915e-02 0.000000e+00
9.568345e-01 1.694915e-02 0.000000e+00
9.820144e-01 1.694915e-02 0.000000e+00
1.007194e+00 1.694915e-02 0.000000e+00
1.032374e+00 1.694915e-02 0.000000e+00
1.057554e+00 1.694915e-02 0.000000e+00
1.082734e+00 1.694915e-02 0.000000e+00
1.107914e+00 1.694915e-02 0.000000e+00
1.133094e+00 1.694915e-02 0.000000e+00
1.158273e+00 1.694915e-02 0.000000e+00
1.183453e+00 1.694915e-02 0.000000e+00
1.208633e+00 1.694915e-02 0.000000e+00
1.233813e+00 1.694915e-02 0.000000e+00
1.258993e+00 1.694915e-02 0.000000e+00
1.284173e+00 1.694915e-02 0.000000e+00
1.309353e+00 1.694915e-02 0.000000e+00
1.334532e+00 1.694915e-02 0.000000e+00
1.359712e+00 1.694915e-02 0.000000e+00
1.384892e+00 1.694915e-02 0.000000e+00
1.410072e+00 1.694915e-02 0.000000e+00
1.435252e+00 1.694915e-02 0.000000e+00
1.460432e+00 1.694915e-02 0.000000e+00
1.485612e+00 1.694915e-02 0.000000e+00
1.510791e+00 1.694915e-02 0.000000e+00
1.535971e+00 1.694915e-02 0.000000e+00
1.561151e+00 1.694915e-02 0.000000e+00
1.586331e+00 1.694915e-02 0.000000e+00
1.611511e+00 1.694915e-02 0.000000e+00
1.636691e+00 1.694915e-02 0.000000e+00
1.661871e+00 1.694915e-02 0.000000e+00
1.687050e+00 1.694915e-02 0.000000e+00
1.712230e+00 1.694915e-02 0.000000e+00
1.737410e+00 1.694915e-02 0.000000e+00
1.762590e+00 1.694915e-02 0.000000e+00
1.787770e+00 1.694915e-02 0.000000e+00
1.812950e+00 1.694915e-02 0.000000e+00
1.838129e+00 1.694915e-02 0.000000e+00
1.863309e+00 1.694915e-02 0.000000e+00
1.888489e+00 1.694915e-02 0.000000e+00
1.913669e+00 1.694915e-02 0.000000e+00
1.938849e+00 1.694915e-02 0.000000e+00
1.964029e+00 1.694915e-02 0.000000e+00
1.989209e+00 1.694915e-02 0.000000e+00
2.014388e+00 1.694915e-02 0.000000e+00
2.039568e+00 1.694915e-02 0.000000e+00
2.064748e+00 1.694915e-02 0.000000e+00
2.089928e+00 1.694915e-02 0.000000e+00
2.115108e+00 1.694915e-02 0.000000e+00
2.140288e+00 1.694915e-02 0.000000e+00
2.165468e+00 1.694915e-02 0.000000e+00
2.190647e+00 1.694915e-02 0.000000e+00
2.215827e+00 1.694915e-02 0.000000e+00
2.241007e+00 1.694915e-02 0.000000e+00
2.266187e+00 1.694915e-02 0.000000e+00
2.291367e+00 1.694915e-02 0.000000e+00
2.316547e+00 1.694915e-02 0.000000e+00
2.341727e+00 1.694915e-02 0.000000e+00
2.366906e+00 1.694915e-02 0.000000e+00
2.392086e+00 1.694915e-02 0.000000e+00
2.417266e+00 1.694915e-02 0.000000e+00
2.442446e+00 1.694915e-02 0.000000e+00
2.467626e+00 1.694915e-02 0.000000e+00
2.492806e+00 1.694915e-02 0.000000e+00
2.517986e+00 1.694915e-02 0.000000e+00
2.543165e+00 1.694915e-02 0.000000e+00
2.568345e+00 1.694915e-02 0.000000e+00
2.593525e+00 1.694915e-02 0.000000e+00
2.618705e+00 1.694915e-02 0.000000e+00
2.643885e+00 1.694915e-02 0.000000e+00
2.669065e+00 1.694915e-02 0.000000e+00
2.694245e+00 1.694915e-02 0.000000e+00
2.719424e+00 1.694915e-02 0.000000e+00
2.744604e+00 1.694915e-02 0.000000e+00
2.769784e+00 1.694915e-02 0.000000e+00
2.794964e+00 1.694915e-02 0.000000e+00
2.820144e+00 1.694915e-02 0.000000e+00
[...]
POINT_DATA 8400
SCALARS RES_Cont double
LOOKUP_TABLE default
0.000000e+00
0.000000e+00
0.000000e+00
0.000000e+00
0.000000e+00
0.000000e+00
0.000000e+00
0.000000e+00
0.000000e+00
0.000000e+00
0.000000e+00
0.000000e+00
0.000000e+00
0.000000e+00
0.000000e+00
0.000000e+00
0.000000e+00
0.000000e+00
0.000000e+00
0.000000e+00
0.000000e+00
0.000000e+00
0.000000e+00
0.000000e+00
0.000000e+00
0.000000e+00
0.000000e+00
0.000000e+00
0.000000e+00
0.000000e+00
0.000000e+00
0.000000e+00
0.000000e+00
0.000000e+00
0.000000e+00
0.000000e+00
0.000000e+00
0.000000e+00
0.000000e+00
0.000000e+00
0.000000e+00
0.000000e+00
0.000000e+00
0.000000e+00
0.000000e+00
0.000000e+00
0.000000e+00
0.000000e+00
0.000000e+00
0.000000e+00
0.000000e+00
0.000000e+00
0.000000e+00
0.000000e+00
0.000000e+00
0.000000e+00
0.000000e+00
0.000000e+00
0.000000e+00
0.000000e+00
0.000000e+00
0.000000e+00
0.000000e+00
0.000000e+00
0.000000e+00
0.000000e+00
0.000000e+00
0.000000e+00
0.000000e+00
0.000000e+00
0.000000e+00
0.000000e+00
0.000000e+00
0.000000e+00
0.000000e+00
0.000000e+00
0.000000e+00
0.000000e+00
0.000000e+00
0.000000e+00
0.000000e+00
0.000000e+00
0.000000e+00
0.000000e+00
0.000000e+00
0.000000e+00
0.000000e+00
0.000000e+00
0.000000e+00
0.000000e+00
0.000000e+00
0.000000e+00
0.000000e+00
0.000000e+00
0.000000e+00
0.000000e+00
0.000000e+00
0.000000e+00
0.000000e+00
0.000000e+00
0.000000e+00
0.000000e+00
0.000000e+00
0.000000e+00
0.000000e+00
0.000000e+00
0.000000e+00
0.000000e+00
0.000000e+00
0.000000e+00
0.000000e+00
0.000000e+00
0.000000e+00
0.000000e+00
0.000000e+00
0.000000e+00
0.000000e+00
0.000000e+00
0.000000e+00
0.000000e+00
0.000000e+00
0.000000e+00
0.000000e+00
0.000000e+00
0.000000e+00
0.000000e+00
0.000000e+00
0.000000e+00
0.000000e+00
0.000000e+00
0.000000e+00
0.000000e+00
0.000000e+00
0.000000e+00
0.000000e+00
0.000000e+00
0.000000e+00
0.000000e+00
0.000000e+00
0.000000e+00
0.000000e+00
-0.000000e+00
-0.000000e+00
-0.000000e+00
-0.000000e+00
-0.000000e+00
-0.000000e+00
3.951571e-19
-3.556414e-18
-1.869104e-18
-1.094193e-17
-2.899574e-17
-7.523633e-17
-2.590663e-16
-9.139027e-16
-2.965392e-15
-9.293856e-15
-2.785701e-14
-7.956244e-14
-2.155372e-13
-5.523953e-13
-1.335928e-12
-3.041498e-12
-6.503465e-12
-1.302782e-11
-2.438099e-11
-4.248258e-11
-6.862130e-11
-1.021497e-10
-1.389615e-10
-1.705559e-10
-1.848747e-10
-1.698791e-10
-1.196426e-10
-4.071379e-11
4.527591e-11
1.066268e-10
1.147793e-10
6.066380e-11
-3.543059e-11
-1.292748e-10
-1.742250e-10
-1.482220e-10
-6.891464e-11
1.541932e-11
5.573901e-11
3.357714e-11
-2.842751e-11
-8.474249e-11
-1.001819e-10
-7.294004e-11
-3.089315e-11
-6.554943e-12
-1.248593e-11
-3.618850e-11
-5.525637e-11
-5.693913e-11
-4.547373e-11
-3.399247e-11
-3.143326e-11
-3.663581e-11
-4.257553e-11
-4.415706e-11
-4.179184e-11
-3.903710e-11
-3.836927e-11
-3.946925e-11
-4.062323e-11
-4.080586e-11
-4.029864e-11
-3.987036e-11
-3.986610e-11
-4.008539e-11
-4.021932e-11
-4.018779e-11
-4.010379e-11
-4.007251e-11
-4.009574e-11
-4.012264e-11
-4.012564e-11
-4.011490e-11
-4.010836e-11
-4.011000e-11
-4.011360e-11
-4.011449e-11
-4.011337e-11
-4.011252e-11
-4.011262e-11
-4.011302e-11
-4.011312e-11
-4.011301e-11
-4.011294e-11
-4.011295e-11
-4.011298e-11
-4.011299e-11
-4.011298e-11
-4.011298e-11
-4.011299e-11
-4.011297e-11
-4.011297e-11
-4.011298e-11
-4.011297e-11
-4.011296e-11
-4.011299e-11
-4.011299e-11
-4.011299e-11
-4.011297e-11
-4.011297e-11
-4.011298e-11
-4.011300e-11
-4.011298e-11
-4.011297e-11
-4.011298e-11
-4.011298e-11
-4.011298e-11
-4.011297e-11
-4.011297e-11
-4.011300e-11
-4.011299e-11
-4.011297e-11
-4.011297e-11
-4.011296e-11
-4.011297e-11
-4.011299e-11
-4.011300e-11
-4.011299e-11
-4.011297e-11
-4.011297e-11
-4.011298e-11
-4.011298e-11
-4.011298e-11
-4.011298e-11
-4.011299e-11
-4.011299e-11
-4.011298e-11
-4.011298e-11
-4.011297e-11
-4.011296e-11
-4.011297e-11
0.000000e+00
0.000000e+00
-0.000000e+00
-0.000000e+00
-0.000000e+00
-0.000000e+00
-0.000000e+00
3.951571e-19
-5.927357e-19
5.441302e-18
5.852244e-18
1.690181e-17
6.918882e-17
2.381328e-16
7.584631e-16
2.429058e-15
7.365406e-15
2.105278e-14
5.660032e-14
1.423191e-13
3.330924e-13
7.206463e-13
1.427204e-12
2.546759e-12
3.973527e-12
5.046984e-12
3.984108e-12
-2.789451e-12
-2.104367e-11
-5.823024e-11
-1.213110e-10
-2.126412e-10
-3.248210e-10
-4.371036e-10
-5.170667e-10
-5.303205e-10
-4.571343e-10
-3.090666e-10
-1.345953e-10
-4.891868e-12
1.892039e-11
-7.825025e-11
-2.493719e-10
-4.050013e-10
-4.628595e-10
-3.981731e-10
-2.599221e-10
-1.385350e-10
-1.053376e-10
-1.666842e-10
-2.660254e-10
-3.305371e-10
-3.245701e-10
-2.689076e-10
-2.150981e-10
-2.010316e-10
-2.256106e-10
-2.590845e-10
-2.734989e-10
-2.640899e-10
-2.462725e-10
-2.370340e-10
-2.406003e-10
-2.492487e-10
-2.539226e-10
-2.523448e-10
-2.484119e-10
-2.464507e-10
-2.472876e-10
-2.489601e-10
-2.496287e-10
-2.491670e-10
-2.485182e-10
-2.483550e-10
-2.485882e-10
-2.488077e-10
-2.488184e-10
-2.487173e-10
-2.486573e-10
-2.486731e-10
-2.487092e-10
-2.487200e-10
-2.487091e-10
-2.486991e-10
-2.486992e-10
-2.487036e-10
-2.487055e-10
-2.487044e-10
-2.487032e-10
-2.487032e-10
-2.487036e-10
-2.487038e-10
-2.487037e-10
-2.487036e-10
-2.487036e-10
-2.487036e-10
-2.487037e-10
-2.487037e-10
-2.487036e-10
-2.487036e-10
-2.487036e-10
-2.487036e-10
-2.487036e-10
-2.487036e-10
-2.487036e-10
-2.487037e-10
-2.487036e-10
-2.487036e-10
-2.487036e-10
-2.487036e-10
-2.487037e-10
-2.487037e-10
-2.487036e-10
-2.487036e-10
-2.487036e-10
-2.487036e-10
-2.487036e-10
-2.487036e-10
-2.487036e-10
-2.487037e-10
-2.487037e-10
-2.487036e-10
-2.487036e-10
-2.487036e-10
-2.487036e-10
-2.487036e-10
-2.487036e-10
-2.487036e-10
-2.487036e-10
-2.487036e-10
-2.487036e-10
-2.487036e-10
-2.487036e-10
-2.487037e-10
-2.487037e-10
-2.487037e-10
-2.487037e-10
-2.487036e-10
-2.487036e-10
-2.487036e-10
0.000000e+00
0.000000e+00
-0.000000e+00
-0.000000e+00
-0.000000e+00
-0.000000e+00
-0.000000e+00
-7.903142e-19
3.465517e-18
4.255831e-18
4.999744e-18
4.972951e-17
1.678518e-16
5.763868e-16
1.902982e-15
6.200476e-15
1.939783e-14
5.761639e-14
1.626107e-13
4.348280e-13
1.099057e-12
2.619806e-12
5.876640e-12
1.237594e-11
2.440080e-11
4.488202e-11
7.665205e-11
1.207361e-10
1.736195e-10
2.241515e-10
2.518208e-10
2.290067e-10
1.294768e-10
-5.711380e-11
-3.096049e-10
-5.681136e-10
-7.454366e-10
-7.604566e-10
-5.830844e-10
-2.665211e-10
5.956841e-11
2.442267e-10
1.966062e-10
-5.427566e-11
-3.663551e-10
-5.644434e-10
-5.475608e-10
-3.513999e-10
-1.193763e-10
-7.986022e-13
-5.027424e-11
-2.018705e-10
-3.323384e-10
-3.579155e-10
-2.873412e-10
-1.964124e-10
-1.564984e-10
-1.816684e-10
-2.327707e-10
-2.625722e-10
-2.553567e-10
-2.298144e-10
-2.128744e-10
-2.148984e-10
-2.268729e-10
-2.349612e-10
-2.340205e-10
-2.286457e-10
-2.253274e-10
-2.260139e-10
-2.283025e-10
-2.294468e-10
-2.289701e-10
-2.280739e-10
-2.277707e-10
-2.280425e-10
-2.283506e-10
-2.283917e-10
-2.282662e-10
-2.281796e-10
-2.281929e-10
-2.282394e-10
-2.282563e-10
-2.282438e-10
-2.282305e-10
-2.282299e-10
-2.282352e-10
-2.282378e-10
-2.282367e-10
-2.282352e-10
-2.282350e-10
-2.282356e-10
-2.282358e-10
-2.282357e-10
-2.282356e-10
-2.282356e-10
-2.282356e-10
-2.282356e-10
-2.282356e-10
-2.282356e-10
-2.282356e-10
-2.282356e-10
-2.282356e-10
-2.282356e-10
-2.282356e-10
-2.282356e-10
-2.282356e-10
-2.282356e-10
-2.282356e-10
-2.282356e-10
-2.282356e-10
-2.282356e-10
-2.282356e-10
-2.282356e-10
-2.282356e-10
-2.282356e-10
-2.282356e-10
-2.282356e-10
-2.282356e-10
-2.282356e-10
-2.282357e-10
-2.282357e-10
-2.282356e-10
-2.282356e-10
-2.282356e-10
-2.282356e-10
-2.282356e-10
-2.282356e-10
-2.282357e-10
-2.282356e-10
-2.282356e-10
-2.282356e-10
-2.282356e-10
-2.282356e-10
-2.282356e-10
-2.282357e-10
-2.282356e-10
-2.282356e-10
-2.282356e-10
-2.282356e-10
0.000000e+00
0.000000e+00
-0.000000e+00
-0.000000e+00
-0.000000e+00
-0.000000e+00
3.951571e-19
-2.173364e-18
2.082467e-18
1.078790e-18
5.956068e-18
3.110692e-17
8.748049e-17
3.112348e-16
1.082506e-15
3.672083e-15
1.199927e-14
3.779003e-14
1.141519e-13
3.295811e-13
9.067460e-13
2.369290e-12
5.862911e-12
1.370432e-11
3.018545e-11
6.250311e-11
1.213629e-10
2.203626e-10
3.729137e-10
5.856904e-10
8.489639e-10
1.126897e-09
1.354089e-09
1.446104e-09
1.328342e-09
9.779594e-10
4.604264e-10
-6.588838e-11
-3.967575e-10
-3.742880e-10
1.712411e-11
6.123046e-10
1.127001e-09
1.304634e-09
1.068102e-09
5.750147e-10
1.259926e-10
-2.451890e-11
1.714972e-10
5.384617e-10
8.148078e-10
8.403176e-10
6.524443e-10
4.278364e-10
3.304614e-10
3.948997e-10
5.294590e-10
6.152635e-10
6.038155e-10
5.352645e-10
4.813444e-10
4.788157e-10
5.110392e-10
5.392701e-10
5.422148e-10
5.275089e-10
5.145450e-10
5.134605e-10
5.200779e-10
5.253484e-10
5.253162e-10
5.224383e-10
5.205824e-10
5.209140e-10
5.220750e-10
5.226050e-10
5.223364e-10
5.219232e-10
5.218233e-10
5.219658e-10
5.220875e-10
5.220843e-10
5.220275e-10
5.220013e-10
5.220139e-10
5.220311e-10
5.220334e-10
5.220272e-10
5.220236e-10
5.220246e-10
5.220265e-10
5.220268e-10
5.220262e-10
5.220259e-10
5.220260e-10
5.220261e-10
5.220261e-10
5.220261e-10
5.220261e-10
5.220261e-10
5.220261e-10
5.220261e-10
5.220261e-10
5.220261e-10
5.220261e-10
5.220261e-10
5.220261e-10
5.220261e-10
5.220261e-10
5.220261e-10
5.220261e-10
5.220261e-10
5.220261e-10
5.220261e-10
5.220261e-10
5.220261e-10
5.220261e-10
5.220261e-10
5.220261e-10
5.220261e-10
5.220261e-10
5.220261e-10
5.220261e-10
5.220261e-10
5.220261e-10
5.220261e-10
5.220261e-10
5.220261e-10
5.220261e-10
5.220261e-10
5.220261e-10
5.220261e-10
5.220261e-10
5.220261e-10
5.220261e-10
5.220261e-10
5.220261e-10
5.220261e-10
5.220261e-10
5.220261e-10
0.000000e+00
0.000000e+00
-0.000000e+00
-0.000000e+00
-0.000000e+00
-0.000000e+00
-1.383050e-18
2.173364e-18
-6.338298e-18
-7.934711e-18
-1.740460e-17
-7.879792e-17
-3.162834e-16
-1.123816e-15
-3.793827e-15
-1.210065e-14
-3.684459e-14
-1.060680e-13
-2.875094e-13
-7.303016e-13
-1.729396e-12
-3.794776e-12
-7.650756e-12
-1.398422e-11
-2.261653e-11
-3.067577e-11
-2.948504e-11
-5.278030e-13
8.782874e-11
2.794532e-10
6.209720e-10
1.140711e-09
1.818649e-09
2.559207e-09
3.187137e-09
3.486503e-09
3.286538e-09
2.567239e-09
1.527308e-09
5.527103e-10
6.464331e-11
3.017312e-10
1.158047e-09
2.198157e-09
2.877855e-09
2.858936e-09
2.217676e-09
1.393765e-09
8.986718e-10
9.809388e-10
1.486490e-09
2.008711e-09
2.201984e-09
2.013097e-09
1.666160e-09
1.445083e-09
1.471961e-09
1.654377e-09
1.809941e-09
1.830774e-09
1.746209e-09
1.658247e-09
1.637018e-09
1.674521e-09
1.718024e-09
1.729715e-09
1.712878e-09
1.693447e-09
1.688917e-09
1.696637e-09
1.704487e-09
1.705580e-09
1.702100e-09
1.699299e-09
1.699354e-09
1.700812e-09
1.701647e-09
1.701409e-09
1.700872e-09
1.700691e-09
1.700847e-09
1.701012e-09
1.701024e-09
1.700956e-09
1.700918e-09
1.700930e-09
1.700952e-09
1.700956e-09
1.700949e-09
1.700944e-09
1.700945e-09
1.700948e-09
1.700948e-09
1.700947e-09
1.700947e-09
1.700947e-09
1.700947e-09
1.700947e-09
1.700947e-09
1.700947e-09
1.700947e-09
1.700947e-09
1.700947e-09
1.700947e-09
1.700947e-09
1.700947e-09
1.700947e-09
1.700947e-09
1.700947e-09
1.700947e-09
1.700947e-09
1.700947e-09
1.700947e-09
1.700947e-09
1.700947e-09
1.700947e-09
1.700947e-09
1.700947e-09
1.700947e-09
1.700947e-09
1.700947e-09
1.700947e-09
1.700947e-09
1.700947e-09
1.700947e-09
1.700947e-09
1.700947e-09
1.700947e-09
1.700947e-09
1.700947e-09
1.700947e-09
1.700947e-09
1.700947e-09
1.700947e-09
1.700947e-09
1.700947e-09
1.700947e-09
1.700947e-09
1.700947e-09
1.700947e-09
0.000000e+00
0.000000e+00
-0.000000e+00
-0.000000e+00
-0.000000e+00
-0.000000e+00
1.975786e-18
-4.955248e-18
7.745296e-19
-1.735725e-17
-5.787664e-17
-2.376927e-16
-8.683935e-16
-3.065170e-15
-1.039424e-14
-3.375419e-14
-1.048530e-13
-3.107251e-13
-8.752726e-13
-2.337384e-12
-5.905121e-12
-1.408786e-11
-3.168210e-11
-6.703728e-11
-1.331643e-10
-2.476341e-10
-4.295032e-10
-6.912067e-10
-1.024372e-09
-1.381732e-09
-1.662796e-09
-1.716560e-09
-1.375646e-09
-5.271300e-10
7.963153e-10
2.348594e-09
3.684224e-09
4.293625e-09
3.837567e-09
2.377668e-09
4.536016e-10
-1.098310e-09
-1.548428e-09
-6.946876e-10
9.722594e-10
2.515255e-09
3.100009e-09
2.505011e-09
1.238412e-09
1.671643e-10
-8.102133e-11
4.909610e-10
1.337235e-09
1.832499e-09
1.727004e-09
1.251329e-09
8.441193e-10
7.782781e-10
9.974183e-10
1.247254e-09
1.328673e-09
1.237470e-09
1.106540e-09
1.053965e-09
1.091870e-09
1.153961e-09
1.179544e-09
1.162535e-09
1.135307e-09
1.125399e-09
1.133600e-09
1.144588e-09
1.147469e-09
1.143529e-09
1.139555e-09
1.139131e-09
1.140876e-09
1.142100e-09
1.141945e-09
1.141273e-09
1.140984e-09
1.141145e-09
1.141359e-09
1.141393e-09
1.141315e-09
1.141263e-09
1.141273e-09
1.141299e-09
1.141307e-09
1.141299e-09
1.141293e-09
1.141293e-09
1.141296e-09
1.141297e-09
1.141296e-09
1.141295e-09
1.141296e-09
1.141296e-09
1.141296e-09
1.141296e-09
1.141296e-09
1.141296e-09
1.141296e-09
1.141296e-09
1.141296e-09
1.141296e-09
1.141296e-09
1.141296e-09
1.141296e-09
1.141296e-09
1.141296e-09
1.141296e-09
1.141296e-09
1.141296e-09
1.141296e-09
1.141296e-09
1.141296e-09
1.141296e-09
1.141296e-09
1.141296e-09
1.141296e-09
1.141296e-09
1.141296e-09
1.141296e-09
1.141296e-09
1.141296e-09
1.141296e-09
1.141296e-09
1.141296e-09
1.141296e-09
1.141296e-09
1.141296e-09
1.141296e-09
1.141296e-09
1.141296e-09
1.141296e-09
1.141296e-09
1.141296e-09
1.141296e-09
1.141296e-09
0.000000e+00
0.000000e+00
-0.000000e+00
-0.000000e+00
-0.000000e+00
1.975786e-19
1.292153e-18
-2.963678e-18
-1.069986e-17
-2.550247e-17
-5.210957e-17
-1.945040e-16
-7.126733e-16
-2.523833e-15
-8.545106e-15
-2.794543e-14
-8.815685e-14
-2.668740e-13
-7.741026e-13
-2.147091e-12
-5.684615e-12
-1.434142e-11
-3.441580e-11
-7.841267e-11
-1.692787e-10
-3.455034e-10
-6.650901e-10
-1.204173e-09
-2.043979e-09
-3.239992e-09
-4.772500e-09
-6.490083e-09
-8.074627e-09
-9.068732e-09
-8.998677e-09
-7.586453e-09
-4.978061e-09
-1.855823e-09
6.970490e-10
1.612057e-09
3.865623e-10
-2.529253e-09
-5.808257e-09
-7.859946e-09
-7.702419e-09
-5.566065e-09
-2.789275e-09
-1.002358e-09
-1.106839e-09
-2.748010e-09
-4.652870e-09
-5.572995e-09
-5.122992e-09
-3.911503e-09
-2.940619e-09
-2.815416e-09
-3.390858e-09
-4.052678e-09
-4.293432e-09
-4.068986e-09
-3.702013e-09
-3.521470e-09
-3.600673e-09
-3.781785e-09
-3.882020e-09
-3.852254e-09
-3.769037e-09
-3.723110e-09
-3.737041e-09
-3.773159e-09
-3.790841e-09
-3.783189e-09
-3.768544e-09
-3.763053e-09
-3.767199e-09
-3.772580e-09
-3.773733e-09
-3.771739e-09
-3.770034e-09
-3.770042e-09
-3.770854e-09
-3.771280e-09
-3.771127e-09
-3.770857e-09
-3.770794e-09
-3.770881e-09
-3.770950e-09
-3.770943e-09
-3.770912e-09
-3.770901e-09
-3.770909e-09
-3.770917e-09
-3.770917e-09
-3.770914e-09
-3.770913e-09
-3.770913e-09
-3.770914e-09
-3.770914e-09
-3.770914e-09
-3.770914e-09
-3.770914e-09
-3.770914e-09
-3.770914e-09
-3.770914e-09
-3.770914e-09
-3.770914e-09
-3.770914e-09
-3.770914e-09
-3.770914e-09
-3.770914e-09
-3.770914e-09
-3.770914e-09
-3.770914e-09
-3.770914e-09
-3.770914e-09
-3.770914e-09
-3.770914e-09
-3.770914e-09
-3.770914e-09
-3.770914e-09
-3.770914e-09
-3.770914e-09
-3.770914e-09
-3.770914e-09
-3.770914e-09
-3.770914e-09
-3.770914e-09
-3.770914e-09
-3.770914e-09
-3.770914e-09
-3.770914e-09
-3.770914e-09
-3.770914e-09
-3.770914e-09
-3.770914e-09
-3.770914e-09
-3.770914e-09
-3.770914e-09
-3.770914e-09
-3.770914e-09
0.000000e+00
0.000000e+00
-0.000000e+00
-0.000000e+00
-0.000000e+00
-1.383050e-18
4.149150e-18
3.465517e-18
2.509193e-18
1.915410e-17
8.012545e-17
3.294651e-16
1.185152e-15
4.124143e-15
1.393029e-14
4.505474e-14
1.387661e-13
4.045415e-13
1.110550e-12
2.856322e-12
6.846441e-12
1.519729e-11
3.096601e-11
5.711063e-11
9.289176e-11
1.256288e-10
1.160550e-10
-2.194356e-11
-4.405888e-10
-1.361362e-09
-3.039992e-09
-5.674057e-09
-9.255712e-09
-1.341443e-08
-1.734231e-08
-1.991241e-08
-2.004784e-08
-1.726421e-08
-1.214080e-08
-6.389750e-09
-2.307206e-09
-1.720499e-09
-4.937056e-09
-1.036809e-08
-1.522538e-08
-1.703742e-08
-1.510519e-08
-1.091855e-08
-7.174866e-09
-6.015692e-09
-7.699051e-09
-1.063341e-08
-1.268352e-08
-1.270872e-08
-1.118264e-08
-9.547035e-09
-8.970371e-09
-9.556735e-09
-1.053135e-08
-1.105579e-08
-1.088673e-08
-1.038940e-08
-1.006268e-08
-1.009904e-08
-1.033254e-08
-1.049940e-08
-1.049091e-08
-1.038603e-08
-1.031243e-08
-1.031842e-08
-1.036386e-08
-1.039204e-08
-1.038649e-08
-1.036785e-08
-1.035880e-08
-1.036274e-08
-1.036973e-08
-1.037191e-08
-1.036974e-08
-1.036747e-08
-1.036725e-08
-1.036820e-08
-1.036879e-08
-1.036866e-08
-1.036833e-08
-1.036823e-08
-1.036833e-08
-1.036841e-08
-1.036841e-08
-1.036838e-08
-1.036836e-08
-1.036837e-08
-1.036838e-08
-1.036838e-08
-1.036837e-08
-1.036837e-08
-1.036837e-08
-1.036838e-08
-1.036838e-08
-1.036837e-08
-1.036837e-08
-1.036837e-08
-1.036837e-08
-1.036837e-08
-1.036837e-08
-1.036837e-08
-1.036837e-08
-1.036837e-08
-1.036837e-08
-1.036837e-08
-1.036837e-08
-1.036837e-08
-1.036837e-08
-1.036837e-08
-1.036837e-08
-1.036837e-08
-1.036837e-08
-1.036837e-08
-1.036837e-08
-1.036837e-08
-1.036837e-08
-1.036837e-08
-1.036837e-08
-1.036837e-08
-1.036837e-08
-1.036837e-08
-1.036837e-08
-1.036837e-08
-1.036837e-08
-1.036837e-08
-1.036837e-08
-1.036837e-08
-1.036837e-08
-1.036837e-08
-1.036837e-08
-1.036837e-08
-1.036837e-08
-1.036837e-08
-1.036837e-08
-1.036837e-08
0.000000e+00
0.000000e+00
-0.000000e+00
3.951571e-19
1.975786e-19
-1.489731e-18
-3.753992e-18
6.171336e-18
2.743471e-17
9.116454e-17
3.265829e-16
1.211334e-15
4.353382e-15
1.518990e-14
5.128433e-14
1.665351e-13
5.177320e-13
1.534832e-12
4.324410e-12
1.155094e-11
2.919370e-11
6.970087e-11
1.569699e-10
3.329263e-10
6.638099e-10
1.241379e-09
2.170679e-09
3.533963e-09
5.323789e-09
7.351801e-09
9.164588e-09
1.002702e-08
9.046957e-09
5.485772e-09
-7.904526e-10
-8.896402e-09
-1.682962e-08
-2.193831e-08
-2.196875e-08
-1.632046e-08
-6.816163e-09
2.676056e-09
7.900775e-09
6.453928e-09
-6.984548e-10
-9.541810e-09
-1.524067e-08
-1.501055e-08
-9.755877e-09
-3.305252e-09
2.595318e-10
-7.178678e-10
-4.680267e-09
-8.391047e-09
-9.450376e-09
-7.819424e-09
-5.354445e-09
-4.029600e-09
-4.452817e-09
-5.767041e-09
-6.706437e-09
-6.690729e-09
-6.068192e-09
-5.542589e-09
-5.490783e-09
-5.770718e-09
-6.024573e-09
-6.055718e-09
-5.931684e-09
-5.822612e-09
-5.814033e-09
-5.868255e-09
-5.909852e-09
-5.908521e-09
-5.885811e-09
-5.872172e-09
-5.875334e-09
-5.884054e-09
-5.887592e-09
-5.885377e-09
-5.882458e-09
-5.881921e-09
-5.882990e-09
-5.883783e-09
-5.883701e-09
-5.883309e-09
-5.883159e-09
-5.883258e-09
-5.883366e-09
-5.883372e-09
-5.883330e-09
-5.883310e-09
-5.883319e-09
-5.883330e-09
-5.883331e-09
-5.883327e-09
-5.883325e-09
-5.883326e-09
-5.883327e-09
-5.883327e-09
-5.883327e-09
-5.883327e-09
-5.883327e-09
-5.883327e-09
-5.883327e-09
-5.883327e-09
-5.883327e-09
-5.883327e-09
-5.883327e-09
-5.883327e-09
-5.883327e-09
-5.883327e-09
-5.883327e-09
-5.883327e-09
-5.883327e-09
-5.883327e-09
-5.883327e-09
-5.883327e-09
-5.883327e-09
-5.883327e-09
-5.883327e-09
-5.883327e-09
-5.883327e-09
-5.883327e-09
-5.883327e-09
-5.883327e-09
-5.883327e-09
-5.883327e-09
-5.883327e-09
-5.883327e-09
-5.883327e-09
-5.883327e-09
-5.883327e-09
-5.883327e-09
-5.883327e-09
-5.883327e-09
-5.883327e-09
-5.883327e-09
-5.883327e-09
-5.883327e-09
0.000000e+00
0.000000e+00
-0.000000e+00
-1.185471e-18
-5.927357e-19
1.383050e-18
1.167292e-17
1.393718e-17
2.462030e-17
1.051238e-16
3.987614e-16
1.458598e-15
5.159695e-15
1.795547e-14
6.026850e-14
1.948419e-13
6.044245e-13
1.793879e-12
5.083211e-12
1.373373e-11
3.534663e-11
8.660047e-11
2.018469e-10
4.472186e-10
9.409767e-10
1.877696e-09
3.547437e-09
6.331389e-09
1.064597e-08
1.680634e-08
2.480015e-08
3.401303e-08
4.302315e-08
4.964803e-08
5.141966e-08
4.651964e-08
3.492300e-08
1.919087e-08
4.244547e-09
-4.234196e-09
-2.389517e-09
9.452971e-09
2.619537e-08
4.000203e-08
4.428761e-08
3.748355e-08
2.411043e-08
1.214200e-08
8.115424e-09
1.317725e-08
2.278212e-08
3.020331e-08
3.122904e-08
2.661714e-08
2.074254e-08
1.787304e-08
1.916795e-08
2.254074e-08
2.497119e-08
2.499196e-08
2.337024e-08
2.187411e-08
2.159641e-08
2.231028e-08
2.308737e-08
2.328784e-08
2.297905e-08
2.261867e-08
2.252430e-08
2.266087e-08
2.281289e-08
2.284443e-08
2.278327e-08
2.272537e-08