# vtk DataFile Version 3.0
Resultado Projeto 3
ASCII
DATASET STRUCTURED_GRID
DIMENSIONS 140 60 1 
POINTS 8400 double
0.000000e+00 0.000000e+00 0.000000e+00
2.517986e-02 0.000000e+00 0.000000e+00
5.035971e-02 0.000000e+00 0.000000e+00
7.553957e-02 0.000000e+00 0.000000e+00
1.007194e-01 0.000000e+00 0.000000e+00
1.258993e-01 0.000000e+00 0.000000e+00
1.510791e-01 0.000000e+00 0.000000e+00
1.762590e-01 0.000000e+00 0.000000e+00
2.014388e-01 0.000000e+00 0.000000e+00
2.266187e-01 0.000000e+00 0.000000e+00
2.517986e-01 0.000000e+00 0.000000e+00
2.769784e-01 0.000000e+00 0.000000e+00
3.021583e-01 0.000000e+00 0.000000e+00
3.273381e-01 0.000000e+00 0.000000e+00
3.525180e-01 0.000000e+00 0.000000e+00
3.776978e-01 0.000000e+00 0.000000e+00
4.028777e-01 0.000000e+00 0.000000e+00
4.280576e-01 0.000000e+00 0.000000e+00
4.532374e-01 0.000000e+00 0.000000e+00
4.784173e-01 0.000000e+00 0.000000e+00
5.035971e-01 0.000000e+00 0.000000e+00
5.287770e-01 0.000000e+00 0.000000e+00
5.539568e-01 0.000000e+00 0.000000e+00
5.791367e-01 0.000000e+00 0.000000e+00
6.043165e-01 0.000000e+00 0.000000e+00
6.294964e-01 0.000000e+00 0.000000e+00
6.546763e-01 0.000000e+00 0.000000e+00
6.798561e-01 0.000000e+00 0.000000e+00
7.050360e-01 0.000000e+00 0.000000e+00
7.302158e-01 0.000000e+00 0.000000e+00
7.553957e-01 0.000000e+00 0.000000e+00
7.805755e-01 0.000000e+00 0.000000e+00
8.057554e-01 0.000000e+00 0.000000e+00
8.309353e-01 0.000000e+00 0.000000e+00
8.561151e-01 0.000000e+00 0.000000e+00
8.812950e-01 0.000000e+00 0.000000e+00
9.064748e-01 0.000000e+00 0.000000e+00
9.316547e-01 0.000000e+00 0.000000e+00
9.568345e-01 0.000000e+00 0.000000e+00
9.820144e-01 0.000000e+00 0.000000e+00
1.007194e+00 0.000000e+00 0.000000e+00
1.032374e+00 0.000000e+00 0.000000e+00
1.057554e+00 0.000000e+00 0.000000e+00
1.082734e+00 0.000000e+00 0.000000e+00
1.107914e+00 0.000000e+00 0.000000e+00
1.133094e+00 0.000000e+00 0.000000e+00
1.158273e+00 0.000000e+00 0.000000e+00
1.183453e+00 0.000000e+00 0.000000e+00
1.208633e+00 0.000000e+00 0.000000e+00
1.233813e+00 0.000000e+00 0.000000e+00
1.258993e+00 0.000000e+00 0.000000e+00
1.284173e+00 0.000000e+00 0.000000e+00
1.309353e+00 0.000000e+00 0.000000e+00
1.334532e+00 0.000000e+00 0.000000e+00
1.359712e+00 0.000000e+00 0.000000e+00
1.384892e+00 0.000000e+00 0.000000e+00
1.410072e+00 0.000000e+00 0.000000e+00
1.435252e+00 0.000000e+00 0.000000e+00
1.460432e+00 0.000000e+00 0.000000e+00
1.485612e+00 0.000000e+00 0.000000e+00
1.510791e+00 0.000000e+00 0.000000e+00
1.535971e+00 0.000000e+00 0.000000e+00
1.561151e+00 0.000000e+00 0.000000e+00
1.586331e+00 0.000000e+00 0.000000e+00
1.611511e+00 0.000000e+00 0.000000e+00
1.636691e+00 0.000000e+00 0.000000e+00
1.661871e+00 0.000000e+00 0.000000e+00
1.687050e+00 0.000000e+00 0.000000e+00
1.712230e+00 0.000000e+00 0.000000e+00
1.737410e+00 0.000000e+00 0.000000e+00
1.762590e+00 0.000000e+00 0.000000e+00
1.787770e+00 0.000000e+00 0.000000e+00
1.812950e+00 0.000000e+00 0.000000e+00
1.838129e+00 0.000000e+00 0.000000e+00
1.863309e+00 0.000000e+00 0.000000e+00
1.888489e+00 0.000000e+00 0.000000e+00
1.913669e+00 0.000000e+00 0.000000e+00
1.938849e+00 0.000000e+00 0.000000e+00
1.964029e+00 0.000000e+00 0.000000e+00
1.989209e+00 0.000000e+00 0.000000e+00
2.014388e+00 0.000000e+00 0.000000e+00
2.039568e+00 0.000000e+00 0.000000e+00
2.064748e+00 0.000000e+00 0.000000e+00
2.089928e+00 0.000000e+00 0.000000e+00
2.115108e+00 0.000000e+00 0.000000e+00
2.140288e+00 0.000000e+00 0.000000e+00
2.165468e+00 0.000000e+00 0.000000e+00
2.190647e+00 0.000000e+00 0.000000e+00
2.215827e+00 0.000000e+00 0.000000e+00
2.241007e+00 0.000000e+00 0.000000e+00
2.266187e+00 0.000000e+00 0.000000e+00
2.291367e+00 0.000000e+00 0.000000e+00
2.316547e+00 0.000000e+00 0.000000e+00
2.341727e+00 0.000000e+00 0.000000e+00
2.366906e+00 0.000000e+00 0.000000e+00
2.392086e+00 0.000000e+00 0.000000e+00
2.417266e+00 0.000000e+00 0.000000e+00
2.442446e+00 0.000000e+00 0.000000e+00
2.467626e+00 0.000000e+00 0.000000e+00
2.492806e+00 0.000000e+00 0.000000e+00
2.517986e+00 0.000000e+00 0.000000e+00
2.543165e+00 0.000000e+00 0.000000e+00
2.568345e+00 0.000000e+00 0.000000e+00
2.593525e+00 0.000000e+00 0.000000e+00
2.618705e+00 0.000000e+00 0.000000e+00
2.643885e+00 0.000000e+00 0.000000e+00
2.669065e+00 0.000000e+00 0.000000e+00
2.694245e+00 0.000000e+00 0.000000e+00
2.719424e+00 0.000000e+00 0.000000e+00
2.744604e+00 0.000000e+00 0.000000e+00
2.769784e+00 0.000000e+00 0.000000e+00
2.794964e+00 0.000000e+00 0.000000e+00
2.820144e+00 0.000000e+00 0.000000e+00
2.845324e+00 0.000000e+00 0.000000e+00
2.870504e+00 0.000000e+00 0.000000e+00
2.895683e+00 0.000000e+00 0.000000e+00
2.920863e+00 0.000000e+00 0.000000e+00
2.946043e+00 0.000000e+00 0.000000e+00
2.971223e+00 0.000000e+00 0.000000e+00
2.996403e+00 0.000000e+00 0.000000e+00
3.021583e+00 0.000000e+00 0.000000e+00
3.046763e+00 0.000000e+00 0.000000e+00
3.071942e+00 0.000000e+00 0.000000e+00
3.097122e+00 0.000000e+00 0.000000e+00
3.122302e+00 0.000000e+00 0.000000e+00
3.147482e+00 0.000000e+00 0.000000e+00
3.172662e+00 0.000000e+00 0.000000e+00
3.197842e+00 0.000000e+00 0.000000e+00
3.223022e+00 0.000000e+00 0.000000e+00
3.248201e+00 0.000000e+00 0.000000e+00
3.273381e+00 0.000000e+00 0.000000e+00
3.298561e+00 0.000000e+00 0.000000e+00
3.323741e+00 0.000000e+00 0.000000e+00
3.348921e+00 0.000000e+00 0.000000e+00
3.374101e+00 0.000000e+00 0.000000e+00
3.399281e+00 0.000000e+00 0.000000e+00
3.424460e+00 0.000000e+00 0.000000e+00
3.449640e+00 0.000000e+00 0.000000e+00
3.474820e+00 0.000000e+00 0.000000e+00
3.500000e+00 0.000000e+00 0.000000e+00
0.000000e+00 1.694915e-02 0.000000e+00
2.517986e-02 1.694915e-02 0.000000e+00
5.035971e-02 1.694915e-02 0.000000e+00
7.553957e-02 1.694915e-02 0.000000e+00
1.007194e-01 1.694915e-02 0.000000e+00
1.258993e-01 1.694915e-02 0.000000e+00
1.510791e-01 1.694915e-02 0.000000e+00
1.762590e-01 1.694915e-02 0.000000e+00
2.014388e-01 1.694915e-02 0.000000e+00
2.266187e-01 1.694915e-02 0.000000e+00
2.517986e-01 1.694915e-02 0.000000e+00
2.769784e-01 1.694915e-02 0.000000e+00
3.021583e-01 1.694915e-02 0.000000e+00
3.273381e-01 1.694915e-02 0.000000e+00
3.525180e-01 1.694915e-02 0.000000e+00
3.776978e-01 1.694915e-02 0.000000e+00
4.028777e-01 1.694915e-02 0.000000e+00
4.280576e-01 1.694915e-02 0.000000e+00
4.532374e-01 1.694915e-02 0.000000e+00
4.784173e-01 1.694915e-02 0.000000e+00
5.035971e-01 1.694915e-02 0.000000e+00
5.287770e-01 1.694915e-02 0.000000e+00
5.539568e-01 1.694915e-02 0.000000e+00
5.791367e-01 1.694915e-02 0.000000e+00
6.043165e-01 1.694915e-02 0.000000e+00
6.294964e-01 1.694915e-02 0.000000e+00
6.546763e-01 1.694915e-02 0.000000e+00
6.798561e-01 1.694915e-02 0.000000e+00
7.050360e-01 1.694915e-02 0.000000e+00
7.302158e-01 1.694915e-02 0.000000e+00
7.553957e-01 1.694915e-02 0.000000e+00
7.805755e-01 1.694915e-02 0.000000e+00
8.057554e-01 1.694915e-02 0.000000e+00
8.309353e-01 1.694915e-02 0.000000e+00
8.561151e-01 1.694915e-02 0.000000e+00
8.812950e-01 1.694915e-02 0.000000e+00
9.064748e-01 1.694915e-02 0.000000e+00
9.316547e-01 1.694915e-02 0.000000e+00
9.568345e-01 1.694915e-02 0.000000e+00
9.820144e-01 1.694915e-02 0.000000e+00
1.007194e+00 1.694915e-02 0.000000e+00
1.032374e+00 1.694915e-02 0.000000e+00
1.057554e+00 1.694915e-02 0.000000e+00
1.082734e+00 1.694915e-02 0.000000e+00
1.107914e+00 1.694915e-02 0.000000e+00
1.133094e+00 1.694915e-02 0.000000e+00
1.158273e+00 1.694915e-02 0.000000e+00
1.183453e+00 1.694915e-02 0.000000e+00
1.208633e+00 1.694915e-02 0.000000e+00
1.233813e+00 1.694915e-02 0.000000e+00
1.258993e+00 1.694915e-02 0.000000e+00
1.284173e+00 1.694915e-02 0.000000e+00
1.309353e+00 1.694915e-02 0.000000e+00
1.334532e+00 1.694915e-02 0.000000e+00
1.359712e+00 1.694915e-02 0.000000e+00
1.384892e+00 1.694915e-02 0.000000e+00
1.410072e+00 1.694915e-02 0.000000e+00
1.435252e+00 1.694915e-02 0.000000e+00
1.460432e+00 1.694915e-02 0.000000e+00
1.485612e+00 1.694915e-02 0.000000e+00
1.510791e+00 1.694915e-02 0.000000e+00
1.535971e+00 1.694915e-02 0.000000e+00
1.561151e+00 1.694915e-02 0.000000e+00
1.586331e+00 1.694915e-02 0.000000e+00
1.611511e+00 1.694915e-02 0.000000e+00
1.636691e+00 1.694915e-02 0.000000e+00
1.661871e+00 1.694915e-02 0.000000e+00
1.687050e+00 1.694915e-02 0.000000e+00
1.712230e+00 1.694915e-02 0.000000e+00
1.737410e+00 1.694915e-02 0.000000e+00
1.762590e+00 1.694915e-02 0.000000e+00
1.787770e+00 1.694915e-02 0.000000e+00
1.812950e+00 1.694915e-02 0.000000e+00
1.838129e+00 1.694915e-02 0.000000e+00
1.863309e+00 1.694915e-02 0.000000e+00
1.888489e+00 1.694915e-02 0.000000e+00
1.913669e+00 1.694915e-02 0.000000e+00
1.938849e+00 1.694915e-02 0.000000e+00
1.964029e+00 1.694915e-02 0.000000e+00
1.989209e+00 1.694915e-02 0.000000e+00
2.014388e+00 1.694915e-02 0.000000e+00
2.039568e+00 1.694915e-02 0.000000e+00
2.064748e+00 1.694915e-02 0.000000e+00
2.089928e+00 1.694915e-02 0.000000e+00
2.115108e+00 1.694915e-02 0.000000e+00
2.140288e+00 1.694915e-02 0.000000e+00
2.165468e+00 1.694915e-02 0.000000e+00
2.190647e+00 1.694915e-02 0.000000e+00
2.215827e+00 1.694915e-02 0.000000e+00
2.241007e+00 1.694915e-02 0.000000e+00
2.266187e+00 1.694915e-02 0.000000e+00
2.291367e+00 1.694915e-02 0.000000e+00
2.316547e+00 1.694915e-02 0.000000e+00
2.341727e+00 1.694915e-02 0.000000e+00
2.366906e+00 1.694915e-02 0.000000e+00
2.392086e+00 1.694915e-02 0.000000e+00
2.417266e+00 1.694915e-02 0.000000e+00
2.442446e+00 1.694915e-02 0.000000e+00
2.467626e+00 1.694915e-02 0.000000e+00
2.492806e+00 1.694915e-02 0.000000e+00
2.517986e+00 1.694915e-02 0.000000e+00
2.543165e+00 1.694915e-02 0.000000e+00
2.568345e+00 1.694915e-02 0.000000e+00
2.593525e+00 1.694915e-02 0.000000e+00
2.618705e+00 1.694915e-02 0.000000e+00
2.643885e+00 1.694915e-02 0.000000e+00
2.669065e+00 1.694915e-02 0.000000e+00
2.694245e+00 1.694915e-02 0.000000e+00
2.719424e+00 1.694915e-02 0.000000e+00
2.744604e+00 1.694915e-02 0.000000e+00
2.769784e+00 1.694915e-02 0.000000e+00
2.794964e+00 1.694915e-02 0.000000e+00
2.820144e+00 1.694915e-02 0.000000e+00
[...]
POINT_DATA 8400
SCALARS RES_Cont double
LOOKUP_TABLE default
0.000000e+00
0.000000e+00
0.000000e+00
0.000000e+00
0.000000e+00
0.000000e+00
0.000000e+00
0.000000e+00
0.000000e+00
0.000000e+00
0.000000e+00
0.000000e+00
0.000000e+00
0.000000e+00
0.000000e+00
0.000000e+00
0.000000e+00
0.000000e+00
0.000000e+00
0.000000e+00
0.000000e+00
0.000000e+00
0.000000e+00
0.000000e+00
0.000000e+00
0.000000e+00
0.000000e+00
0.000000e+00
0.000000e+00
0.000000e+00
0.000000e+00
0.000000e+00
0.000000e+00
0.000000e+00
0.000000e+00
0.000000e+00
0.000000e+00
0.000000e+00
0.000000e+00
0.000000e+00
0.000000e+00
0.000000e+00
0.000000e+00
0.000000e+00
0.000000e+00
0.000000e+00
0.000000e+00
0.000000e+00
0.000000e+00
0.000000e+00
0.000000e+00
0.000000e+00
0.000000e+00
0.000000e+00
0.000000e+00
0.000000e+00
0.000000e+00
0.000000e+00
0.000000e+00
0.000000e+00
0.000000e+00
0.000000e+00
0.000000e+00
0.000000e+00
0.000000e+00
0.000000e+00
0.000000e+00
0.000000e+00
0.000000e+00
0.000000e+00
0.000000e+00
0.000000e+00
0.000000e+00
0.000000e+00
0.000000e+00
0.000000e+00
0.000000e+00
0.000000e+00
0.000000e+00
0.000000e+00
0.000000e+00
0.000000e+00
0.000000e+00
0.000000e+00
0.000000e+00
0.000000e+00
0.000000e+00
0.000000e+00
0.000000e+00
0.000000e+00
0.000000e+00
0.000000e+00
0.000000e+00
0.000000e+00
0.000000e+00
0.000000e+00
0.000000e+00
0.000000e+00
0.000000e+00
0.000000e+00
0.000000e+00
0.000000e+00
0.000000e+00
0.000000e+00
0.000000e+00
0.000000e+00
0.000000e+00
0.000000e+00
0.000000e+00
0.000000e+00
0.000000e+00
0.000000e+00
0.000000e+00
0.000000e+00
0.000000e+00
0.000000e+00
0.000000e+00
0.000000e+00
0.000000e+00
0.000000e+00
0.000000e+00
0.000000e+00
0.000000e+00
0.000000e+00
0.000000e+00
0.000000e+00
0.000000e+00
0.000000e+00
0.000000e+00
0.000000e+00
0.000000e+00
0.000000e+00
0.000000e+00
0.000000e+00
0.000000e+00
0.000000e+00
0.000000e+00
0.000000e+00
0.000000e+00
0.000000e+00
0.000000e+00
-0.000000e+00
-0.000000e+00
-0.000000e+00
-0.000000e+00
-0.000000e+00
-0.000000e+00
-0.000000e+00
-1.975786e-19
3.951571e-19
-3.951571e-19
-1.185471e-18
-4.149150e-18
-6.717671e-18
-7.112828e-18
-8.495878e-18
-8.100721e-18
-1.778207e-18
-1.185471e-18
-1.383050e-18
-2.568521e-18
-7.112828e-18
-6.124935e-18
-8.298299e-18
-6.322514e-18
-3.161257e-18
-3.753992e-18
-5.334621e-18
-6.520092e-18
-6.124935e-18
-8.100721e-18
-7.310406e-18
-6.915249e-18
-3.556414e-18
-3.556414e-18
-5.334621e-18
-4.544307e-18
-4.544307e-18
-2.963678e-18
-1.778207e-18
-5.729778e-18
-4.149150e-18
-3.358835e-18
-6.717671e-18
-4.544307e-18
-3.161257e-18
-3.753992e-18
-5.927357e-18
-6.915249e-18
-5.137042e-18
-6.322514e-18
-6.915249e-18
-4.544307e-18
-6.915249e-18
-6.124935e-18
-3.753992e-18
-3.161257e-18
-5.532199e-18
-4.149150e-18
-5.334621e-18
-6.322514e-18
-6.124935e-18
-5.927357e-18
-4.939464e-18
-6.717671e-18
-5.137042e-18
-5.532199e-18
-4.544307e-18
-7.310406e-18
-8.693456e-18
-7.507985e-18
-3.358835e-18
-3.951571e-18
-5.334621e-18
-6.915249e-18
-4.149150e-18
-2.568521e-18
-4.544307e-18
-5.137042e-18
-7.705563e-18
-4.544307e-18
-3.753992e-18
-1.778207e-18
-1.778207e-18
-3.358835e-18
-3.358835e-18
-3.358835e-18
-3.358835e-18
-3.358835e-18
-3.358835e-18
-3.358835e-18
-3.358835e-18
-3.358835e-18
-3.358835e-18
-3.358835e-18
-3.358835e-18
-3.358835e-18
-3.358835e-18
-3.358835e-18
-3.358835e-18
-3.358835e-18
-3.358835e-18
-3.358835e-18
-3.358835e-18
-3.358835e-18
-3.358835e-18
-3.358835e-18
-3.358835e-18
-3.358835e-18
-3.358835e-18
-3.358835e-18
-3.358835e-18
-3.358835e-18
-3.358835e-18
-3.358835e-18
-3.358835e-18
-3.358835e-18
-3.358835e-18
-3.358835e-18
-3.358835e-18
-3.358835e-18
-3.358835e-18
-3.358835e-18
-3.358835e-18
-3.358835e-18
-3.358835e-18
-3.358835e-18
-3.358835e-18
-3.358835e-18
-3.358835e-18
-3.358835e-18
-3.358835e-18
-3.358835e-18
-3.358835e-18
-3.358835e-18
-3.358835e-18
-3.358835e-18
-3.358835e-18
-3.358835e-18
0.000000e+00
0.000000e+00
-0.000000e+00
-0.000000e+00
-0.000000e+00
-0.000000e+00
-0.000000e+00
-0.000000e+00
-0.000000e+00
7.903142e-19
2.173364e-18
3.951571e-18
4.544307e-18
6.520092e-18
9.788031e-18
-1.817940e-19
-1.592780e-17
-3.281382e-17
-2.738735e-17
-2.092849e-17
-6.003422e-18
8.663792e-19
1.687310e-18
-6.504308e-18
-2.305641e-17
-1.086682e-17
-1.153562e-17
-3.404284e-18
-3.176089e-18
-9.210127e-18
-6.960698e-18
-8.146169e-18
-6.763119e-18
-7.158276e-18
-1.101895e-17
-5.972805e-18
-5.349453e-18
-1.098833e-17
-1.031953e-17
-1.051711e-17
-1.477294e-17
-7.751012e-18
-7.522817e-18
-1.504659e-17
-1.094289e-17
-9.255575e-18
-1.170258e-17
-1.556326e-17
-1.035015e-17
-1.015257e-17
-3.890338e-18
-6.444027e-18
-7.158276e-18
-8.738905e-18
-8.055272e-18
-1.716974e-18
-1.267564e-17
-7.355855e-18
-1.019802e-17
-1.158107e-17
-5.744610e-18
-6.839184e-18
-1.042621e-17
-6.960698e-18
-8.024656e-18
-1.002725e-18
-1.583690e-17
-9.134062e-18
-7.522817e-18
-9.802863e-18
-5.775226e-18
-7.067379e-18
-9.224959e-18
-1.642964e-17
-1.193078e-17
-5.106426e-18
-1.209774e-17
-1.446868e-17
-1.437779e-17
-4.118533e-18
-6.763119e-18
-9.134062e-18
-1.130743e-17
-2.010756e-17
-1.845087e-17
-1.607993e-17
-1.607993e-17
-1.607993e-17
-1.607993e-17
-1.607993e-17
-1.607993e-17
-1.607993e-17
-1.607993e-17
-1.607993e-17
-1.607993e-17
-1.607993e-17
-1.607993e-17
-1.607993e-17
-1.607993e-17
-1.607993e-17
-1.607993e-17
-1.607993e-17
-1.607993e-17
-1.607993e-17
-1.607993e-17
-1.607993e-17
-1.607993e-17
-1.607993e-17
-1.607993e-17
-1.607993e-17
-1.607993e-17
-1.607993e-17
-1.607993e-17
-1.607993e-17
-1.607993e-17
-1.607993e-17
-1.607993e-17
-1.607993e-17
-1.607993e-17
-1.607993e-17
-1.607993e-17
-1.607993e-17
-1.607993e-17
-1.607993e-17
-1.607993e-17
-1.607993e-17
-1.607993e-17
-1.607993e-17
-1.607993e-17
-1.607993e-17
-1.607993e-17
-1.607993e-17
-1.607993e-17
-1.607993e-17
-1.607993e-17
-1.607993e-17
-1.607993e-17
-1.607993e-17
-1.607993e-17
-1.607993e-17
0.000000e+00
0.000000e+00
-0.000000e+00
-0.000000e+00
-0.000000e+00
-0.000000e+00
-0.000000e+00
-0.000000e+00
3.951571e-19
2.963678e-18
2.264261e-18
7.796460e-18
1.571443e-17
4.223636e-17
6.483638e-17
8.056660e-17
8.552185e-17
6.349973e-17
2.366398e-17
-1.246323e-17
-9.287144e-18
1.998510e-17
5.441017e-17
6.936586e-17
5.407624e-17
2.346640e-17
1.310046e-17
1.749264e-17
4.700886e-17
5.067196e-17
2.535033e-17
2.755432e-17
3.678023e-17
3.244833e-17
4.094516e-17
2.124663e-17
2.928707e-17
3.567082e-17
3.024435e-17
3.497140e-17
3.886269e-17
2.708309e-17
3.316258e-17
4.517038e-17
2.807099e-17
2.700703e-17
3.158195e-17
3.717538e-17
3.323865e-17
3.063951e-17
4.064090e-17
3.346684e-17
2.401273e-17
3.883208e-17
3.146044e-17
3.252440e-17
3.668933e-17
2.510731e-17
3.256984e-17
3.427199e-17
3.094377e-17
3.769205e-17
2.661187e-17
3.985059e-17
3.323865e-17
2.487911e-17
4.624917e-17
4.155273e-17
2.121602e-17
3.877084e-17
3.519960e-17
3.456141e-17
3.313196e-17
3.190104e-17
3.559476e-17
2.750887e-17
3.529050e-17
3.627839e-17
3.826996e-17
1.907327e-17
3.296500e-17
4.360458e-17
3.059406e-17
3.320803e-17
3.974391e-17
3.284349e-17
3.410502e-17
3.450018e-17
3.450018e-17
3.450018e-17
3.450018e-17
3.450018e-17
3.450018e-17
3.450018e-17
3.450018e-17
3.450018e-17
3.450018e-17
3.450018e-17
3.450018e-17
3.450018e-17
3.450018e-17
3.450018e-17
3.450018e-17
3.450018e-17
3.450018e-17
3.450018e-17
3.450018e-17
3.450018e-17
3.450018e-17
3.450018e-17
3.450018e-17
3.450018e-17
3.450018e-17
3.450018e-17
3.450018e-17
3.450018e-17
3.450018e-17
3.450018e-17
3.450018e-17
3.450018e-17
3.450018e-17
3.450018e-17
3.450018e-17
3.450018e-17
3.450018e-17
3.450018e-17
3.450018e-17
3.450018e-17
3.450018e-17
3.450018e-17
3.450018e-17
3.450018e-17
3.450018e-17
3.450018e-17
3.450018e-17
3.450018e-17
3.450018e-17
3.450018e-17
3.450018e-17
3.450018e-17
0.000000e+00
0.000000e+00
-0.000000e+00
-0.000000e+00
-0.000000e+00
-0.000000e+00
-0.000000e+00
3.951571e-19
-3.951571e-19
-7.705563e-18
-1.284261e-17
-2.293490e-17
-2.719073e-17
-1.290479e-17
1.495283e-17
9.646188e-17
2.065911e-16
2.772955e-16
2.705333e-16
1.861970e-16
6.931945e-17
1.489255e-17
5.737194e-17
1.326503e-16
1.936131e-16
1.845097e-16
1.252194e-16
9.901652e-17
1.085309e-16
1.388523e-16
1.456460e-16
1.305076e-16
1.350528e-16
1.255078e-16
1.324082e-16
1.295355e-16
1.341558e-16
1.266321e-16
1.318916e-16
1.296728e-16
1.267694e-16
1.338367e-16
1.237445e-16
1.305688e-16
1.349768e-16
1.307664e-16
1.393541e-16
1.323470e-16
1.316179e-16
1.226202e-16
1.303109e-16
1.245654e-16
1.241396e-16
1.378189e-16
1.255078e-16
1.360713e-16
1.224069e-16
1.289882e-16
1.330010e-16
1.309491e-16
1.314046e-16
1.312988e-16
1.299306e-16
1.290188e-16
1.248696e-16
1.268454e-16
1.209023e-16
1.362383e-16
1.273769e-16
1.304325e-16
1.320279e-16
1.330919e-16
1.295355e-16
1.271645e-16
1.266627e-16
1.373477e-16
1.294594e-16
1.292312e-16
1.394144e-16
1.444912e-16
1.290642e-16
1.296115e-16
1.270272e-16
1.376214e-16
1.293527e-16
1.352652e-16
1.334110e-16
1.318303e-16
1.318303e-16
1.318303e-16
1.318303e-16
1.318303e-16
1.318303e-16
1.318303e-16
1.318303e-16
1.318303e-16
1.318303e-16
1.318303e-16
1.318303e-16
1.318303e-16
1.318303e-16
1.318303e-16
1.318303e-16
1.318303e-16
1.318303e-16
1.318303e-16
1.318303e-16
1.318303e-16
1.318303e-16
1.318303e-16
1.318303e-16
1.318303e-16
1.318303e-16
1.318303e-16
1.318303e-16
1.318303e-16
1.318303e-16
1.318303e-16
1.318303e-16
1.318303e-16
1.318303e-16
1.318303e-16
1.318303e-16
1.318303e-16
1.318303e-16
1.318303e-16
1.318303e-16
1.318303e-16
1.318303e-16
1.318303e-16
1.318303e-16
1.318303e-16
1.318303e-16
1.318303e-16
1.318303e-16
1.318303e-16
1.318303e-16
1.318303e-16
1.318303e-16
1.318303e-16
0.000000e+00
0.000000e+00
-0.000000e+00
-0.000000e+00
-0.000000e+00
-0.000000e+00
-0.000000e+00
-2.568521e-18
-6.717671e-18
-3.540629e-18
-2.832885e-17
-7.469857e-17
-1.653268e-16
-2.952584e-16
-4.171811e-16
-5.021892e-16
-4.391487e-16
-1.898935e-16
1.162829e-16
2.928635e-16
1.949870e-16
-7.053268e-17
-2.981637e-16
-3.215421e-16
-1.579294e-16
1.219054e-17
3.704190e-17
-6.147564e-17
-1.533071e-16
-1.520613e-16
-8.716276e-17
-6.409056e-17
-7.427375e-17
-9.933656e-17
-8.754213e-17
-9.983840e-17
-9.187403e-17
-9.372830e-17
-9.877444e-17
-8.602273e-17
-9.342499e-17
-8.796790e-17
-8.710152e-17
-8.568786e-17
-9.739139e-17
-8.766364e-17
-9.112916e-17
-1.031518e-16
-7.992746e-17
-9.363740e-17
-9.052159e-17
-9.040008e-17
-9.649440e-17
-9.310495e-17
-8.536877e-17
-8.717759e-17
-9.198071e-17
-8.992886e-17
-8.713214e-17
-9.363740e-17
-8.986762e-17
-8.606818e-17
-8.427419e-17
-9.813626e-17
-9.198071e-17
-9.076462e-17
-9.163100e-17
-8.895580e-17
-8.576392e-17
-9.616047e-17
-9.076462e-17
-8.816548e-17
-8.922944e-17
-8.973128e-17
-9.150949e-17
-8.158416e-17
-8.670637e-17
-1.071340e-16
-9.649440e-17
-8.217689e-17
-9.581077e-17
-9.064311e-17
-9.585621e-17
-9.049098e-17
-8.986762e-17
-9.798413e-17
-8.722304e-17
-9.482287e-17
-8.950308e-17
-9.056704e-17
-9.056704e-17
-9.056704e-17
-9.056704e-17
-9.056704e-17
-9.056704e-17
-9.056704e-17
-9.056704e-17
-9.056704e-17
-9.056704e-17
-9.056704e-17
-9.056704e-17
-9.056704e-17
-9.056704e-17
-9.056704e-17
-9.056704e-17
-9.056704e-17
-9.056704e-17
-9.056704e-17
-9.056704e-17
-9.056704e-17
-9.056704e-17
-9.056704e-17
-9.056704e-17
-9.056704e-17
-9.056704e-17
-9.056704e-17
-9.056704e-17
-9.056704e-17
-9.056704e-17
-9.056704e-17
-9.056704e-17
-9.056704e-17
-9.056704e-17
-9.056704e-17
-9.056704e-17
-9.056704e-17
-9.056704e-17
-9.056704e-17
-9.056704e-17
-9.056704e-17
-9.056704e-17
-9.056704e-17
-9.056704e-17
-9.056704e-17
-9.056704e-17
-9.056704e-17
-9.056704e-17
-9.056704e-17
-9.056704e-17
-9.056704e-17
0.000000e+00
0.000000e+00
-0.000000e+00
-0.000000e+00
-0.000000e+00
-1.975786e-19
-0.000000e+00
1.580628e-18
5.334621e-18
2.185611e-17
3.995822e-17
4.388203e-17
-1.462802e-17
-2.105915e-16
-6.513893e-16
-1.279344e-15
-1.933371e-15
-2.248323e-15
-1.998239e-15
-1.238311e-15
-4.797447e-16
-2.786289e-16
-7.170595e-16
-1.365922e-15
-1.651661e-15
-1.411951e-15
-1.020843e-15
-8.594146e-16
-9.997427e-16
-1.203680e-15
-1.240689e-15
-1.153419e-15
-1.091484e-15
-1.098080e-15
-1.130468e-15
-1.129207e-15
-1.129131e-15
-1.128964e-15
-1.126852e-15
-1.134588e-15
-1.129314e-15
-1.119343e-15
-1.121562e-15
-1.134785e-15
-1.129542e-15
-1.125529e-15
-1.116972e-15
-1.132201e-15
-1.146823e-15
-1.125879e-15
-1.118948e-15
-1.125027e-15
-1.119328e-15
-1.128569e-15
-1.135545e-15
-1.129131e-15
-1.132642e-15
-1.136898e-15
-1.134146e-15
-1.130271e-15
-1.131563e-15
-1.136533e-15
-1.125560e-15
-1.119571e-15
-1.130925e-15
-1.124024e-15
-1.120923e-15
-1.124860e-15
-1.135591e-15
-1.136533e-15
-1.118795e-15
-1.127034e-15
-1.130347e-15
-1.125727e-15
-1.131761e-15
-1.128888e-15
-1.129557e-15
-1.123629e-15
-1.130454e-15
-1.127277e-15
-1.126669e-15
-1.124815e-15
-1.126593e-15
-1.130149e-15
-1.127186e-15
-1.127581e-15
-1.128371e-15
-1.129952e-15
-1.129952e-15
-1.129952e-15
-1.129952e-15
-1.129952e-15
-1.129952e-15
-1.129952e-15
-1.129952e-15
-1.129952e-15
-1.129952e-15
-1.129952e-15
-1.129952e-15
-1.129952e-15
-1.129952e-15
-1.129952e-15
-1.129952e-15
-1.129952e-15
-1.129952e-15
-1.129952e-15
-1.129952e-15
-1.129952e-15
-1.129952e-15
-1.129952e-15
-1.129952e-15
-1.129952e-15
-1.129952e-15
-1.129952e-15
-1.129952e-15
-1.129952e-15
-1.129952e-15
-1.129952e-15
-1.129952e-15
-1.129952e-15
-1.129952e-15
-1.129952e-15
-1.129952e-15
-1.129952e-15
-1.129952e-15
-1.129952e-15
-1.129952e-15
-1.129952e-15
-1.129952e-15
-1.129952e-15
-1.129952e-15
-1.129952e-15
-1.129952e-15
-1.129952e-15
-1.129952e-15
-1.129952e-15
-1.129952e-15
-1.129952e-15
-1.129952e-15
-1.129952e-15
0.000000e+00
0.000000e+00
-0.000000e+00
-0.000000e+00
-0.000000e+00
1.185471e-18
1.185471e-18
5.516415e-18
3.357257e-17
9.030728e-17
2.259055e-16
5.324723e-16
1.024539e-15
1.636161e-15
2.067111e-15
1.899231e-15
7.451293e-16
-1.196560e-15
-3.012515e-15
-3.563594e-15
-2.378103e-15
-3.420783e-16
9.777113e-16
6.581751e-16
-7.401920e-16
-1.788757e-15
-1.688014e-15
-8.801282e-16
-3.393376e-16
-4.766241e-16
-8.775669e-16
-1.048950e-15
-9.224368e-16
-7.848729e-16
-7.585170e-16
-8.277623e-16
-8.605168e-16
-8.357424e-16
-8.170476e-16
-8.327027e-16
-8.277929e-16
-8.242365e-16
-8.293439e-16
-8.398916e-16
-8.335385e-16
-8.321100e-16
-8.267289e-16
-8.252402e-16
-8.364725e-16
-8.266687e-16
-8.262735e-16
-8.159224e-16
-8.284617e-16
-8.294802e-16
-8.415334e-16
-8.322621e-16
-8.202088e-16
-8.242819e-16
-8.332500e-16
-8.301490e-16
-8.252698e-16
-8.248905e-16
-8.409713e-16
-8.275044e-16
-8.264098e-16
-8.310608e-16
-8.290396e-16
-8.276714e-16
-8.372776e-16
-8.249201e-16
-8.347694e-16
-8.401652e-16
-8.356358e-16
-8.287502e-16
-8.355597e-16
-8.416856e-16
-8.281426e-16
-8.284311e-16
-8.342675e-16
-8.425668e-16
-8.345866e-16
-8.409704e-16
-8.373379e-16
-8.333863e-16
-8.396179e-16
-8.361524e-16
-8.368212e-16
-8.364261e-16
-8.362285e-16
-8.356358e-16
-8.362285e-16
-8.362285e-16
-8.362285e-16
-8.362285e-16
-8.362285e-16
-8.362285e-16
-8.362285e-16
-8.362285e-16
-8.362285e-16
-8.362285e-16
-8.362285e-16
-8.362285e-16
-8.362285e-16
-8.362285e-16
-8.362285e-16
-8.362285e-16
-8.362285e-16
-8.362285e-16
-8.362285e-16
-8.362285e-16
-8.362285e-16
-8.362285e-16
-8.362285e-16
-8.362285e-16
-8.362285e-16
-8.362285e-16
-8.362285e-16
-8.362285e-16
-8.362285e-16
-8.362285e-16
-8.362285e-16
-8.362285e-16
-8.362285e-16
-8.362285e-16
-8.362285e-16
-8.362285e-16
-8.362285e-16
-8.362285e-16
-8.362285e-16
-8.362285e-16
-8.362285e-16
-8.362285e-16
-8.362285e-16
-8.362285e-16
-8.362285e-16
-8.362285e-16
-8.362285e-16
-8.362285e-16
-8.362285e-16
-8.362285e-16
0.000000e+00
0.000000e+00
-0.000000e+00
-0.000000e+00
7.903142e-19
1.778207e-18
9.089700e-20
-6.247401e-18
-1.872737e-17
-4.414629e-18
9.866735e-17
4.547944e-16
1.437986e-15
3.498171e-15
6.847094e-15
1.091404e-14
1.409322e-14
1.440248e-14
1.099935e-14
5.453166e-15
1.349497e-15
1.563292e-15
5.593255e-15
9.804748e-15
1.078975e-14
8.501694e-15
5.759580e-15
5.116671e-15
6.436839e-15
7.764622e-15
7.871052e-15
7.150815e-15
6.688207e-15
6.807287e-15
7.117738e-15
7.205026e-15
7.076596e-15
7.013293e-15
7.035589e-15
7.059558e-15
7.062871e-15
7.046563e-15
7.050302e-15
7.044055e-15
7.058281e-15
7.056549e-15
7.044541e-15
7.049861e-15
7.066458e-15
7.074879e-15
7.051928e-15
7.033065e-15
7.054770e-15
7.070516e-15
7.056959e-15
7.051943e-15
7.049861e-15
7.057308e-15
7.059041e-15
7.057582e-15
7.057977e-15
7.051366e-15
7.054634e-15
7.046350e-15
7.064285e-15
7.051274e-15
7.044542e-15
7.058707e-15
7.055044e-15
7.042215e-15
7.051883e-15
7.070182e-15
7.037321e-15
7.047991e-15
7.063723e-15
7.052992e-15
7.052338e-15
7.055256e-15
7.056351e-15
7.052719e-15
7.058053e-15
7.056473e-15
7.056670e-15
7.053509e-15
7.050834e-15
7.053676e-15
7.052095e-15
7.052490e-15
7.052293e-15
7.049724e-15
7.052095e-15
7.052095e-15
7.052095e-15
7.052095e-15
7.052095e-15
7.052095e-15
7.052095e-15
7.052095e-15
7.052095e-15
7.052095e-15
7.052095e-15
7.052095e-15
7.052095e-15
7.052095e-15
7.052095e-15
7.052095e-15
7.052095e-15
7.052095e-15
7.052095e-15
7.052095e-15
7.052095e-15
7.052095e-15
7.052095e-15
7.052095e-15
7.052095e-15
7.052095e-15
7.052095e-15
7.052095e-15
7.052095e-15
7.052095e-15
7.052095e-15
7.052095e-15
7.052095e-15
7.052095e-15
7.052095e-15
7.052095e-15
7.052095e-15
7.052095e-15
7.052095e-15
7.052095e-15
7.052095e-15
7.052095e-15
7.052095e-15
7.052095e-15
7.052095e-15
7.052095e-15
7.052095e-15
7.052095e-15
7.052095e-15
7.052095e-15
0.000000e+00
0.000000e+00
-0.000000e+00
-0.000000e+00
-2.370943e-18
-9.681349e-18
-1.361714e-17
-6.953187e-17
-2.106790e-16
-5.608198e-16
-1.311974e-15
-2.682676e-15
-4.516775e-15
-5.864135e-15
-4.764297e-15
9.860590e-16
1.198479e-14
2.514069e-14
3.390967e-14
3.248564e-14
2.111128e-14
7.674099e-15
2.036271e-15
7.375781e-15
1.746803e-14
2.300498e-14
2.052804e-14
1.463873e-14
1.172583e-14
1.336373e-14
1.622210e-14
1.706665e-14
1.596721e-14
1.493180e-14
1.496466e-14
1.547832e-14
1.569756e-14
1.553740e-14
1.538834e-14
1.540150e-14
1.547548e-14
1.549417e-14
1.546376e-14
1.545619e-14
1.547019e-14
1.547704e-14
1.545297e-14
1.545614e-14
1.546738e-14
1.546852e-14
1.545927e-14
1.546125e-14
1.545531e-14
1.546763e-14
1.547756e-14
1.546254e-14
1.546049e-14
1.547750e-14
1.547248e-14
1.546780e-14
1.546231e-14
1.547212e-14
1.546703e-14
1.546028e-14
1.546259e-14
1.545139e-14
1.546665e-14
1.547090e-14
1.547686e-14
1.546763e-14
1.547282e-14
1.547449e-14
1.545589e-14
1.546741e-14
1.546463e-14
1.547298e-14
1.546893e-14
1.545430e-14
1.547285e-14
1.547162e-14
1.545918e-14
1.546025e-14
1.546025e-14
1.546459e-14
1.547063e-14
1.546353e-14
1.546657e-14
1.546558e-14
1.546459e-14
1.546874e-14
1.546925e-14
1.546393e-14
1.546499e-14
1.546499e-14
1.546499e-14
1.546499e-14
1.546499e-14
1.546499e-14
1.546499e-14
1.546499e-14
1.546499e-14
1.546499e-14
1.546499e-14
1.546499e-14
1.546499e-14
1.546499e-14
1.546499e-14
1.546499e-14
1.546499e-14
1.546499e-14
1.546499e-14
1.546499e-14
1.546499e-14
1.546499e-14
1.546499e-14
1.546499e-14
1.546499e-14
1.546499e-14
1.546499e-14
1.546499e-14
1.546499e-14
1.546499e-14
1.546499e-14
1.546499e-14
1.546499e-14
1.546499e-14
1.546499e-14
1.546499e-14
1.546499e-14
1.546499e-14
1.546499e-14
1.546499e-14
1.546499e-14
1.546499e-14
1.546499e-14
1.546499e-14
1.546499e-14
1.546499e-14
1.546499e-14
1.546499e-14
0.000000e+00
0.000000e+00
-0.000000e+00
-7.903142e-19
-6.322514e-18
-7.745296e-19
-1.922445e-17
-4.584734e-17
-1.896415e-16
-7.503447e-16
-2.352172e-15
-6.383329e-15
-1.481387e-14
-2.934218e-14
-4.910617e-14
-6.835056e-14
-7.686975e-14
-6.550432e-14
-3.516123e-14
-1.027522e-15
1.517683e-14
2.377606e-15
-2.832068e-14
-5.169592e-14
-5.079811e-14
-3.172951e-14
-1.516805e-14
-1.458935e-14
-2.519454e-14
-3.331994e-14
-3.242423e-14
-2.713415e-14
-2.448275e-14
-2.583058e-14
-2.787169e-14
-2.823065e-14
-2.739818e-14
-2.690441e-14
-2.706877e-14
-2.732419e-14
-2.735541e-14
-2.726282e-14
-2.722690e-14
-2.724640e-14
-2.725933e-14
-2.724915e-14
-2.724493e-14
-2.725531e-14
-2.727707e-14
-2.727063e-14
-2.726294e-14
-2.726231e-14
-2.724946e-14
-2.725049e-14
-2.725833e-14
-2.726382e-14
-2.724433e-14
-2.724648e-14
-2.726467e-14
-2.726260e-14
-2.726198e-14
-2.724962e-14
-2.725748e-14
-2.726833e-14
-2.726253e-14
-2.725502e-14
-2.726067e-14
-2.725623e-14
-2.724695e-14
-2.726006e-14
-2.725806e-14
-2.725789e-14
-2.726148e-14
-2.726117e-14
-2.725639e-14