# vtk DataFile Version 3.0
Resultado Projeto 3
ASCII
DATASET STRUCTURED_GRID
DIMENSIONS 140 60 1 
POINTS 8400 double
0.000000e+00 0.000000e+00 0.000000e+00
2.517986e-02 0.000000e+00 0.000000e+00
5.035971e-02 0.000000e+00 0.000000e+00
7.553957e-02 0.000000e+00 0.000000e+00
1.007194e-01 0.000000e+00 0.000000e+00
1.258993e-01 0.000000e+00 0.000000e+00
1.510791e-01 0.000000e+00 0.000000e+00
1.762590e-01 0.000000e+00 0.000000e+00
2.014388e-01 0.000000e+00 0.000000e+00
2.266187e-01 0.000000e+00 0.000000e+00
2.517986e-01 0.000000e+00 0.000000e+00
2.769784e-01 0.000000e+00 0.000000e+00
3.021583e-01 0.000000e+00 0.000000e+00
3.273381e-01 0.000000e+00 0.000000e+00
3.525180e-01 0.000000e+00 0.000000e+00
3.776978e-01 0.000000e+00 0.000000e+00
4.028777e-01 0.000000e+00 0.000000e+00
4.280576e-01 0.000000e+00 0.000000e+00
4.532374e-01 0.000000e+00 0.000000e+00
4.784173e-01 0.000000e+00 0.000000e+00
5.035971e-01 0.000000e+00 0.000000e+00
5.287770e-01 0.000000e+00 0.000000e+00
5.539568e-01 0.000000e+00 0.000000e+00
5.791367e-01 0.000000e+00 0.000000e+00
6.043165e-01 0.000000e+00 0.000000e+00
6.294964e-01 0.000000e+00 0.000000e+00
6.546763e-01 0.000000e+00 0.000000e+00
6.798561e-01 0.000000e+00 0.000000e+00
7.050360e-01 0.000000e+00 0.000000e+00
7.302158e-01 0.000000e+00 0.000000e+00
7.553957e-01 0.000000e+00 0.000000e+00
7.805755e-01 0.000000e+00 0.000000e+00
8.057554e-01 0.000000e+00 0.000000e+00
8.309353e-01 0.000000e+00 0.000000e+00
8.561151e-01 0.000000e+00 0.000000e+00
8.812950e-01 0.000000e+00 0.000000e+00
9.064748e-01 0.000000e+00 0.000000e+00
9.316547e-01 0.000000e+00 0.000000e+00
9.568345e-01 0.000000e+00 0.000000e+00
9.820144e-01 0.000000e+00 0.000000e+00
1.007194e+00 0.000000e+00 0.000000e+00
1.032374e+00 0.000000e+00 0.000000e+00
1.057554e+00 0.000000e+00 0.000000e+00
1.082734e+00 0.000000e+00 0.000000e+00
1.107914e+00 0.000000e+00 0.000000e+00
1.133094e+00 0.000000e+00 0.000000e+00
1.158273e+00 0.000000e+00 0.000000e+00
1.183453e+00 0.000000e+00 0.000000e+00
1.208633e+00 0.000000e+00 0.000000e+00
1.233813e+00 0.000000e+00 0.000000e+00
1.258993e+00 0.000000e+00 0.000000e+00
1.284173e+00 0.000000e+00 0.000000e+00
1.309353e+00 0.000000e+00 0.000000e+00
1.334532e+00 0.000000e+00 0.000000e+00
1.359712e+00 0.000000e+00 0.000000e+00
1.384892e+00 0.000000e+00 0.000000e+00
1.410072e+00 0.000000e+00 0.000000e+00
1.435252e+00 0.000000e+00 0.000000e+00
1.460432e+00 0.000000e+00 0.000000e+00
1.485612e+00 0.000000e+00 0.000000e+00
1.510791e+00 0.000000e+00 0.000000e+00
1.535971e+00 0.000000e+00 0.000000e+00
1.561151e+00 0.000000e+00 0.000000e+00
1.586331e+00 0.000000e+00 0.000000e+00
1.611511e+00 0.000000e+00 0.000000e+00
1.636691e+00 0.000000e+00 0.000000e+00
1.661871e+00 0.000000e+00 0.000000e+00
1.687050e+00 0.000000e+00 0.000000e+00
1.712230e+00 0.000000e+00 0.000000e+00
1.737410e+00 0.000000e+00 0.000000e+00
1.762590e+00 0.000000e+00 0.000000e+00
1.787770e+00 0.000000e+00 0.000000e+00
1.812950e+00 0.000000e+00 0.000000e+00
1.838129e+00 0.000000e+00 0.000000e+00
1.863309e+00 0.000000e+00 0.000000e+00
1.888489e+00 0.000000e+00 0.000000e+00
1.913669e+00 0.000000e+00 0.000000e+00
1.938849e+00 0.000000e+00 0.000000e+00
1.964029e+00 0.000000e+00 0.000000e+00
1.989209e+00 0.000000e+00 0.000000e+00
2.014388e+00 0.000000e+00 0.000000e+00
2.039568e+00 0.000000e+00 0.000000e+00
2.064748e+00 0.000000e+00 0.000000e+00
2.089928e+00 0.000000e+00 0.000000e+00
2.115108e+00 0.000000e+00 0.000000e+00
2.140288e+00 0.000000e+00 0.000000e+00
2.165468e+00 0.000000e+00 0.000000e+00
2.190647e+00 0.000000e+00 0.000000e+00
2.215827e+00 0.000000e+00 0.000000e+00
2.241007e+00 0.000000e+00 0.000000e+00
2.266187e+00 0.000000e+00 0.000000e+00
2.291367e+00 0.000000e+00 0.000000e+00
2.316547e+00 0.000000e+00 0.000000e+00
2.341727e+00 0.000000e+00 0.000000e+00
2.366906e+00 0.000000e+00 0.000000e+00
2.392086e+00 0.000000e+00 0.000000e+00
2.417266e+00 0.000000e+00 0.000000e+00
2.442446e+00 0.000000e+00 0.000000e+00
2.467626e+00 0.000000e+00 0.000000e+00
2.492806e+00 0.000000e+00 0.000000e+00
2.517986e+00 0.000000e+00 0.000000e+00
2.543165e+00 0.000000e+00 0.000000e+00
2.568345e+00 0.000000e+00 0.000000e+00
2.593525e+00 0.000000e+00 0.000000e+00
2.618705e+00 0.000000e+00 0.000000e+00
2.643885e+00 0.000000e+00 0.000000e+00
2.669065e+00 0.000000e+00 0.000000e+00
2.694245e+00 0.000000e+00 0.000000e+00
2.719424e+00 0.000000e+00 0.000000e+00
2.744604e+00 0.000000e+00 0.000000e+00
2.769784e+00 0.000000e+00 0.000000e+00
2.794964e+00 0.000000e+00 0.000000e+00
2.820144e+00 0.000000e+00 0.000000e+00
2.845324e+00 0.000000e+00 0.000000e+00
2.870504e+00 0.000000e+00 0.000000e+00
2.895683e+00 0.000000e+00 0.000000e+00
2.920863e+00 0.000000e+00 0.000000e+00
2.946043e+00 0.000000e+00 0.000000e+00
2.971223e+00 0.000000e+00 0.000000e+00
2.996403e+00 0.000000e+00 0.000000e+00
3.021583e+00 0.000000e+00 0.000000e+00
3.046763e+00 0.000000e+00 0.000000e+00
3.071942e+00 0.000000e+00 0.000000e+00
3.097122e+00 0.000000e+00 0.000000e+00
3.122302e+00 0.000000e+00 0.000000e+00
3.147482e+00 0.000000e+00 0.000000e+00
3.172662e+00 0.000000e+00 0.000000e+00
3.197842e+00 0.000000e+00 0.000000e+00
3.223022e+00 0.000000e+00 0.000000e+00
3.248201e+00 0.000000e+00 0.000000e+00
3.273381e+00 0.000000e+00 0.000000e+00
3.298561e+00 0.000000e+00 0.000000e+00
3.323741e+00 0.000000e+00 0.000000e+00
3.348921e+00 0.000000e+00 0.000000e+00
3.374101e+00 0.000000e+00 0.000000e+00
3.399281e+00 0.000000e+00 0.000000e+00
3.424460e+00 0.000000e+00 0.000000e+00
3.449640e+00 0.000000e+00 0.000000e+00
3.474820e+00 0.000000e+00 0.000000e+00
3.500000e+00 0.000000e+00 0.000000e+00
0.000000e+00 1.694915e-02 0.000000e+00
2.517986e-02 1.694915e-02 0.000000e+00
5.035971e-02 1.694915e-02 0.000000e+00
7.553957e-02 1.694915e-02 0.000000e+00
1.007194e-01 1.694915e-02 0.000000e+00
1.258993e-01 1.694915e-02 0.000000e+00
1.510791e-01 1.694915e-02 0.000000e+00
1.762590e-01 1.694915e-02 0.000000e+00
2.014388e-01 1.694915e-02 0.000000e+00
2.266187e-01 1.694915e-02 0.000000e+00
2.517986e-01 1.694915e-02 0.000000e+00
2.769784e-01 1.694915e-02 0.000000e+00
3.021583e-01 1.694915e-02 0.000000e+00
3.273381e-01 1.694915e-02 0.000000e+00
3.525180e-01 1.694915e-02 0.000000e+00
3.776978e-01 1.694915e-02 0.000000e+00
4.028777e-01 1.694915e-02 0.000000e+00
4.280576e-01 1.694915e-02 0.000000e+00
4.532374e-01 1.694915e-02 0.000000e+00
4.784173e-01 1.694915e-02 0.000000e+00
5.035971e-01 1.694915e-02 0.000000e+00
5.287770e-01 1.694915e-02 0.000000e+00
5.539568e-01 1.694915e-02 0.000000e+00
5.791367e-01 1.694915e-02 0.000000e+00
6.043165e-01 1.694915e-02 0.000000e+00
6.294964e-01 1.694915e-02 0.000000e+00
6.546763e-01 1.694915e-02 0.000000e+00
6.798561e-01 1.694915e-02 0.000000e+00
7.050360e-01 1.694915e-02 0.000000e+00
7.302158e-01 1.694915e-02 0.000000e+00
7.553957e-01 1.694915e-02 0.000000e+00
7.805755e-01 1.694915e-02 0.000000e+00
8.057554e-01 1.694915e-02 0.000000e+00
8.309353e-01 1.694915e-02 0.000000e+00
8.561151e-01 1.694915e-02 0.000000e+00
8.812950e-01 1.694915e-02 0.000000e+00
9.064748e-01 1.694915e-02 0.000000e+00
9.316547e-01 1.694915e-02 0.000000e+00
9.568345e-01 1.694915e-02 0.000000e+00
9.820144e-01 1.694915e-02 0.000000e+00
1.007194e+00 1.694915e-02 0.000000e+00
1.032374e+00 1.694915e-02 0.000000e+00
1.057554e+00 1.694915e-02 0.000000e+00
1.082734e+00 1.694915e-02 0.000000e+00
1.107914e+00 1.694915e-02 0.000000e+00
1.133094e+00 1.694915e-02 0.000000e+00
1.158273e+00 1.694915e-02 0.000000e+00
1.183453e+00 1.694915e-02 0.000000e+00
1.208633e+00 1.694915e-02 0.000000e+00
1.233813e+00 1.694915e-02 0.000000e+00
1.258993e+00 1.694915e-02 0.000000e+00
1.284173e+00 1.694915e-02 0.000000e+00
1.309353e+00 1.694915e-02 0.000000e+00
1.334532e+00 1.694915e-02 0.000000e+00
1.359712e+00 1.694915e-02 0.000000e+00
1.384892e+00 1.694915e-02 0.000000e+00
1.410072e+00 1.694915e-02 0.000000e+00
1.435252e+00 1.694915e-02 0.000000e+00
1.460432e+00 1.694915e-02 0.000000e+00
1.485612e+00 1.694915e-02 0.000000e+00
1.510791e+00 1.694915e-02 0.000000e+00
1.535971e+00 1.694915e-02 0.000000e+00
1.561151e+00 1.694915e-02 0.000000e+00
1.586331e+00 1.694915e-02 0.000000e+00
1.611511e+00 1.694915e-02 0.000000e+00
1.636691e+00 1.694915e-02 0.000000e+00
1.661871e+00 1.694915e-02 0.000000e+00
1.687050e+00 1.694915e-02 0.000000e+00
1.712230e+00 1.694915e-02 0.000000e+00
1.737410e+00 1.694915e-02 0.000000e+00
1.762590e+00 1.694915e-02 0.000000e+00
1.787770e+00 1.694915e-02 0.000000e+00
1.812950e+00 1.694915e-02 0.000000e+00
1.838129e+00 1.694915e-02 0.000000e+00
1.863309e+00 1.694915e-02 0.000000e+00
1.888489e+00 1.694915e-02 0.000000e+00
1.913669e+00 1.694915e-02 0.000000e+00
1.938849e+00 1.694915e-02 0.000000e+00
1.964029e+00 1.694915e-02 0.000000e+00
1.989209e+00 1.694915e-02 0.000000e+00
2.014388e+00 1.694915e-02 0.000000e+00
2.039568e+00 1.694915e-02 0.000000e+00
2.064748e+00 1.694915e-02 0.000000e+00
2.089928e+00 1.694915e-02 0.000000e+00
2.115108e+00 1.694915e-02 0.000000e+00
2.140288e+00 1.694915e-02 0.000000e+00
2.165468e+00 1.694915e-02 0.000000e+00
2.190647e+00 1.694915e-02 0.000000e+00
2.215827e+00 1.694915e-02 0.000000e+00
2.241007e+00 1.694915e-02 0.000000e+00
2.266187e+00 1.694915e-02 0.000000e+00
2.291367e+00 1.694915e-02 0.000000e+00
2.316547e+00 1.694915e-02 0.000000e+00
2.341727e+00 1.694915e-02 0.000000e+00
2.366906e+00 1.694915e-02 0.000000e+00
2.392086e+00 1.694915e-02 0.000000e+00
2.417266e+00 1.694915e-02 0.000000e+00
2.442446e+00 1.694915e-02 0.000000e+00
2.467626e+00 1.694915e-02 0.000000e+00
2.492806e+00 1.694915e-02 0.000000e+00
2.517986e+00 1.694915e-02 0.000000e+00
2.543165e+00 1.694915e-02 0.000000e+00
2.568345e+00 1.694915e-02 0.000000e+00
2.593525e+00 1.694915e-02 0.000000e+00
2.618705e+00 1.694915e-02 0.000000e+00
2.643885e+00 1.694915e-02 0.000000e+00
2.669065e+00 1.694915e-02 0.000000e+00
2.694245e+00 1.694915e-02 0.000000e+00
2.719424e+00 1.694915e-02 0.000000e+00
2.744604e+00 1.694915e-02 0.000000e+00
2.769784e+00 1.694915e-02 0.000000e+00
2.794964e+00 1.694915e-02 0.000000e+00
2.820144e+00 1.694915e-02 0.000000e+00
[...]
POINT_DATA 8400
SCALARS RES_Cont double
LOOKUP_TABLE default
0.000000e+00
0.000000e+00
0.000000e+00
0.000000e+00
0.000000e+00
0.000000e+00
0.000000e+00
0.000000e+00
0.000000e+00
0.000000e+00
0.000000e+00
0.000000e+00
0.000000e+00
0.000000e+00
0.000000e+00
0.000000e+00
0.000000e+00
0.000000e+00
0.000000e+00
0.000000e+00
0.000000e+00
0.000000e+00
0.000000e+00
0.000000e+00
0.000000e+00
0.000000e+00
0.000000e+00
0.000000e+00
0.000000e+00
0.000000e+00
0.000000e+00
0.000000e+00
0.000000e+00
0.000000e+00
0.000000e+00
0.000000e+00
0.000000e+00
0.000000e+00
0.000000e+00
0.000000e+00
0.000000e+00
0.000000e+00
0.000000e+00
0.000000e+00
0.000000e+00
0.000000e+00
0.000000e+00
0.000000e+00
0.000000e+00
0.000000e+00
0.000000e+00
0.000000e+00
0.000000e+00
0.000000e+00
0.000000e+00
0.000000e+00
0.000000e+00
0.000000e+00
0.000000e+00
0.000000e+00
0.000000e+00
0.000000e+00
0.000000e+00
0.000000e+00
0.000000e+00
0.000000e+00
0.000000e+00
0.000000e+00
0.000000e+00
0.000000e+00
0.000000e+00
0.000000e+00
0.000000e+00
0.000000e+00
0.000000e+00
0.000000e+00
0.000000e+00
0.000000e+00
0.000000e+00
0.000000e+00
0.000000e+00
0.000000e+00
0.000000e+00
0.000000e+00
0.000000e+00
0.000000e+00
0.000000e+00
0.000000e+00
0.000000e+00
0.000000e+00
0.000000e+00
0.000000e+00
0.000000e+00
0.000000e+00
0.000000e+00
0.000000e+00
0.000000e+00
0.000000e+00
0.000000e+00
0.000000e+00
0.000000e+00
0.000000e+00
0.000000e+00
0.000000e+00
0.000000e+00
0.000000e+00
0.000000e+00
0.000000e+00
0.000000e+00
0.000000e+00
0.000000e+00
0.000000e+00
0.000000e+00
0.000000e+00
0.000000e+00
0.000000e+00
0.000000e+00
0.000000e+00
0.000000e+00
0.000000e+00
0.000000e+00
0.000000e+00
0.000000e+00
0.000000e+00
0.000000e+00
0.000000e+00
0.000000e+00
0.000000e+00
0.000000e+00
0.000000e+00
0.000000e+00
0.000000e+00
0.000000e+00
0.000000e+00
0.000000e+00
0.000000e+00
0.000000e+00
0.000000e+00
0.000000e+00
0.000000e+00
0.000000e+00
-0.000000e+00
-0.000000e+00
-0.000000e+00
-0.000000e+00
-0.000000e+00
-0.000000e+00
3.951571e-19
-2.766100e-18
2.082467e-18
2.280046e-18
-4.179766e-18
7.142492e-19
2.416391e-18
2.578590e-19
1.793992e-18
-1.484016e-18
-2.249020e-18
1.055251e-18
1.909380e-18
3.100927e-19
4.132212e-18
-7.431019e-19
1.456216e-18
-3.120889e-18
3.624877e-19
4.338613e-18
-2.664903e-18
-6.307513e-19
1.550128e-18
1.664343e-18
-2.373046e-18
-1.608582e-18
3.644665e-18
4.348978e-18
-1.512122e-18
-1.940579e-18
-2.013655e-18
-2.083844e-18
-4.317242e-18
2.008190e-18
-6.226148e-18
5.924660e-18
6.339290e-18
-1.087505e-18
1.866312e-18
-3.008474e-18
-3.350252e-18
-4.367836e-18
-6.682071e-17
-3.325658e-16
-1.454901e-15
-4.871345e-15
-1.055423e-14
6.677950e-15
2.249294e-13
1.482125e-12
6.783571e-12
2.410899e-11
6.493136e-11
1.043753e-10
-1.205234e-10
-1.796825e-09
-8.797093e-09
-3.067380e-08
-8.085470e-08
-1.325298e-07
7.244353e-08
1.256627e-06
4.094720e-06
8.696886e-06
1.491595e-05
2.256370e-05
3.154130e-05
4.187311e-05
5.359107e-05
6.659678e-05
8.052408e-05
9.466578e-05
1.080374e-04
1.195610e-04
1.282775e-04
1.335009e-04
1.348862e-04
1.324254e-04
1.264093e-04
1.173828e-04
1.061027e-04
9.349493e-05
8.059525e-05
6.846083e-05
5.804933e-05
5.007851e-05
4.489720e-05
4.240851e-05
4.208065e-05
4.305635e-05
4.434006e-05
4.501483e-05
4.443085e-05
4.231882e-05
3.880578e-05
3.433822e-05
2.953907e-05
2.503845e-05
2.132197e-05
1.863347e-05
1.695267e-05
1.604604e-05
1.556886e-05
1.518290e-05
1.465312e-05
1.389805e-05
1.298611e-05
1.208870e-05
1.141225e-05
1.113373e-05
1.135827e-05
1.210637e-05
1.332719e-05
1.492603e-05
1.679221e-05
1.881597e-05
2.088994e-05
2.289760e-05
2.469694e-05
2.610961e-05
2.692444e-05
2.691990e-05
2.590420e-05
2.376575e-05
2.052234e-05
1.635541e-05
1.161701e-05
6.801888e-06
2.484071e-06
-7.748108e-07
-2.531324e-06
-2.561406e-06
0.000000e+00
0.000000e+00
-0.000000e+00
-0.000000e+00
-0.000000e+00
-0.000000e+00
-0.000000e+00
3.951571e-19
-5.927357e-19
1.778207e-18
7.903142e-19
-3.769777e-18
-1.094574e-18
5.289172e-18
1.580628e-18
-2.141795e-18
-1.059195e-18
-1.647168e-18
3.473138e-18
-2.332029e-18
-2.948863e-18
-2.256690e-18
-1.188830e-18
-2.499037e-19
-1.506236e-18
1.050624e-18
-3.108179e-19
-1.920235e-18
-1.285825e-18
1.166480e-18
1.157509e-18
-3.355834e-18
-1.155415e-18
2.455278e-19
5.316550e-19
2.620430e-18
3.968760e-18
-1.514961e-18
8.158910e-19
-2.919351e-18
-1.081017e-18
-6.164049e-18
-7.987257e-18
4.007542e-19
2.796516e-18
-4.793693e-18
1.225225e-18
4.786934e-18
5.384533e-18
-2.963430e-17
-1.173348e-16
-4.654714e-16
-1.379802e-15
-1.885633e-15
1.155878e-14
1.203706e-13
6.828365e-13
2.909338e-12
9.675915e-12
2.319145e-11
2.183813e-11
-1.446023e-10
-1.096138e-09
-4.772856e-09
-1.569873e-08
-3.814763e-08
-4.325526e-08
1.452687e-07
8.879533e-07
2.259649e-06
3.992754e-06
6.171928e-06
9.835406e-06
1.665869e-05
2.749496e-05
4.156000e-05
5.721783e-05
7.296643e-05
8.784179e-05
1.013626e-04
1.132234e-04
1.230493e-04
1.303476e-04
1.346126e-04
1.354720e-04
1.327984e-04
1.267598e-04
1.178162e-04
1.066816e-04
9.426328e-05
8.158312e-05
6.967463e-05
5.945843e-05
5.160778e-05
4.643182e-05
4.381286e-05
4.322689e-05
4.385427e-05
4.475925e-05
4.509216e-05
4.426099e-05
4.203097e-05
3.853330e-05
3.418852e-05
2.957065e-05
2.525109e-05
2.166261e-05
1.901528e-05
1.728099e-05
1.624378e-05
1.559458e-05
1.503712e-05
1.437176e-05
1.353609e-05
1.259813e-05
1.171329e-05
1.106528e-05
1.081122e-05
1.104620e-05
1.179299e-05
1.301376e-05
1.463371e-05
1.656458e-05
1.871841e-05
2.100721e-05
2.333064e-05
2.555846e-05
2.751696e-05
2.898726e-05
2.972096e-05
2.947340e-05
2.805090e-05
2.536350e-05
2.147163e-05
1.661412e-05
1.120640e-05
5.802801e-06
1.024103e-06
-2.540569e-06
-4.442466e-06
0.000000e+00
0.000000e+00
-0.000000e+00
-0.000000e+00
-0.000000e+00
-0.000000e+00
3.951571e-19
-7.903142e-19
3.860674e-18
3.465517e-18
1.669620e-19
-2.447008e-18
2.203981e-18
1.018509e-18
-3.236369e-18
-2.306852e-18
-5.389186e-18
-2.049945e-18
1.842022e-18
-1.870616e-18
-2.588158e-18
1.485036e-18
1.190351e-18
1.120886e-18
2.665746e-18
3.300521e-18
-3.529972e-19
-4.207158e-18
-5.732115e-18
3.933304e-18
2.861876e-18
2.774320e-18
4.709713e-18
5.189744e-18
3.222058e-18
-2.610998e-18
-2.554762e-18
-5.403608e-19
-1.751011e-17
-8.427908e-18
1.258313e-17
7.473546e-18
3.555263e-18
5.063203e-18
1.186732e-17
-1.259066e-19
-8.341880e-18
5.685766e-18
-6.263495e-18
-4.449262e-17
-1.637642e-16
-3.979729e-16
2.034180e-16
9.549636e-15
7.059087e-14
3.605158e-13
1.436738e-12
4.409673e-12
8.727796e-12
-3.279606e-12
-1.308539e-10
-7.561619e-10
-3.016506e-09
-9.309661e-09
-2.017153e-08
-8.557604e-09
1.540991e-07
6.786223e-07
1.544574e-06
2.505910e-06
3.405461e-06
4.402476e-06
6.130473e-06
1.003324e-05
1.860436e-05
3.390724e-05
5.489446e-05
7.757881e-05
9.790778e-05
1.136849e-04
1.247430e-04
1.319955e-04
1.363381e-04
1.381503e-04
1.373715e-04
1.338158e-04
1.274470e-04
1.185214e-04
1.076055e-04
9.551448e-05
8.320827e-05
7.166376e-05
6.173902e-05
5.404203e-05
4.882919e-05
4.596160e-05
4.493754e-05
4.500334e-05
4.531934e-05
4.513817e-05
4.395093e-05
4.156779e-05
3.811752e-05
3.397285e-05
2.962852e-05
2.556691e-05
2.214487e-05
1.952743e-05
1.768155e-05
1.642461e-05
1.550607e-05
1.469286e-05
1.383337e-05
1.288616e-05
1.191236e-05
1.104125e-05
1.042361e-05
1.018888e-05
1.041786e-05
1.113575e-05
1.232258e-05
1.393247e-05
1.591157e-05
1.820685e-05
2.076254e-05
2.350615e-05
2.632940e-05
2.907131e-05
3.150995e-05
3.336813e-05
3.433580e-05
3.410958e-05
3.244618e-05
2.922271e-05
2.449221e-05
1.851996e-05
1.178696e-05
4.951992e-06
-1.227468e-06
-6.006414e-06
0.000000e+00
0.000000e+00
-0.000000e+00
-0.000000e+00
-0.000000e+00
-0.000000e+00
-1.185471e-18
-1.778207e-18
5.018387e-19
-7.903142e-19
-3.282770e-18
-2.492456e-18
-4.099891e-19
-2.369990e-18
-3.052670e-18
3.484159e-18
3.250249e-18
9.608108e-19
5.714947e-19
1.966226e-18
4.892470e-18
2.524359e-19
-2.586798e-18
5.816246e-19
2.385772e-19
-1.857188e-18
6.896002e-19
8.078911e-19
-3.231563e-18
3.073232e-18
4.635243e-18
-3.184482e-19
1.205540e-18
2.954859e-18
1.247173e-18
-3.827433e-18
-2.298781e-18
2.504863e-18
1.383085e-18
1.744335e-18
1.094856e-17
2.275487e-17
1.044030e-17
8.620972e-19
-1.314998e-17
-1.100053e-17
-1.756252e-17
-1.250291e-17
-1.011240e-17
-4.325442e-17
-9.163765e-17
4.540822e-16
5.838134e-15
3.764956e-14
1.815781e-13
6.915307e-13
1.974650e-12
3.012654e-12
-8.221959e-12
-9.329565e-11
-4.822166e-10
-1.841838e-09
-5.441108e-09
-1.039969e-08
4.941314e-09
1.268930e-07
4.689451e-07
1.006345e-06
1.629610e-06
2.289198e-06
3.053848e-06
4.076060e-06
5.536198e-06
7.751487e-06
1.173203e-05
2.029669e-05
3.783421e-05
6.560845e-05
9.781288e-05
1.257879e-04
1.441894e-04
1.525549e-04
1.535513e-04
1.503111e-04
1.448507e-04
1.379321e-04
1.296217e-04
1.198777e-04
1.088811e-04
9.712380e-05
8.533272e-05
7.432128e-05
6.482447e-05
5.735264e-05
5.209598e-05
4.889464e-05
4.728231e-05
4.659668e-05
4.612646e-05
4.525869e-05
4.359372e-05
4.100072e-05
3.760385e-05
3.371200e-05
2.971674e-05
2.598540e-05
2.277580e-05
2.019415e-05
1.820223e-05
1.666241e-05
1.539925e-05
1.425758e-05
1.314355e-05
1.204143e-05
1.100557e-05
1.013381e-05
9.533945e-06
9.295608e-06
9.475926e-06
1.009992e-05
1.117095e-05
1.268349e-05
1.463174e-05
1.701001e-05
1.980462e-05
2.297909e-05
2.645591e-05
3.009843e-05
3.369663e-05
3.696059e-05
3.952652e-05
4.098035e-05
4.090335e-05
3.893996e-05
3.488134e-05
2.874896e-05
2.085621e-05
1.182567e-05
2.547621e-06
-5.921709e-06
0.000000e+00
0.000000e+00
-0.000000e+00
-0.000000e+00
-0.000000e+00
-0.000000e+00
-5.927357e-19
9.878928e-19
-4.362513e-18
-4.255831e-18
-1.732758e-18
-1.580628e-18
-6.381842e-19
-2.567569e-18
1.020414e-18
2.245619e-18
-1.634516e-18
5.327126e-18
-2.904785e-18
-9.230163e-19
1.880175e-18
2.474472e-18
2.063970e-19
-2.238017e-20
-1.643661e-18
3.185353e-19
1.535274e-19
3.120555e-18
8.446847e-19
4.251063e-18
3.767040e-18
3.051649e-18
-1.541644e-18
-1.476622e-18
3.682130e-18
-2.965321e-18
-3.820482e-18
-3.153661e-18
-1.369576e-18
-1.049481e-18
-8.880071e-19
1.540101e-17
8.715104e-18
-4.489507e-18
-7.624558e-18
-1.292142e-17
-1.479012e-17
-2.229091e-17
-2.862303e-17
7.629012e-19
3.430683e-16
3.136697e-15
1.865116e-14
8.614536e-14
3.138434e-13
8.182213e-13
7.132441e-13
-7.514718e-12
-6.004588e-11
-2.890140e-10
-1.067552e-09
-3.009950e-09
-4.765100e-09
9.604377e-09
9.404408e-08
3.045962e-07
6.239052e-07
1.011840e-06
1.479480e-06
2.117188e-06
3.058465e-06
4.421454e-06
6.259522e-06
8.530387e-06
1.117737e-05
1.462251e-05
2.118621e-05
3.691820e-05
6.828592e-05
1.117827e-04
1.529879e-04
1.792225e-04
1.872554e-04
1.813845e-04
1.683185e-04
1.531793e-04
1.384343e-04
1.246731e-04
1.117335e-04
9.944898e-05
8.792050e-05
7.748827e-05
6.856216e-05
6.144383e-05
5.620744e-05
5.265711e-05
5.036964e-05
4.879492e-05
4.737600e-05
4.566302e-05
4.339185e-05
4.050637e-05
3.712961e-05
3.350094e-05
2.989500e-05
2.654358e-05
2.358548e-05
2.105655e-05
1.891144e-05
1.706011e-05
1.540622e-05
1.387939e-05
1.245413e-05
1.115062e-05
1.001956e-05
9.120579e-06
8.505552e-06
8.212901e-06
8.271746e-06
8.710082e-06
9.561110e-06
1.086464e-05
1.266356e-05
1.499671e-05
1.788976e-05
2.134411e-05
2.532352e-05
2.973743e-05
3.442114e-05
3.911479e-05
4.344707e-05
4.693303e-05
4.899834e-05
4.904075e-05
4.653180e-05
4.114756e-05
3.290063e-05
2.223554e-05
1.005167e-05
-2.365990e-06
0.000000e+00
0.000000e+00
-0.000000e+00
-0.000000e+00
-0.000000e+00
-0.000000e+00
2.766100e-18
-5.152827e-18
-2.477624e-18
1.930337e-18
-3.161257e-18
-3.860674e-18
-5.030361e-18
9.424443e-19
9.673453e-19
9.851687e-19
7.669006e-19
-5.777967e-18
-1.634434e-20
-1.385565e-18
-2.811299e-18
-2.349715e-18
-3.967699e-18
-2.690017e-18
-2.578344e-18
1.346780e-18
2.762247e-18
-1.524043e-18
4.692545e-19
-1.999479e-18
8.782061e-19
-2.400677e-19
9.292433e-20
-2.277676e-19
-2.776711e-18
-3.779107e-19
-4.140766e-18
-9.175125e-19
-3.802432e-18
-4.193311e-19
-4.144316e-18
-6.875729e-18
4.780851e-18
4.933925e-18
6.534310e-18
-7.025335e-18
4.315756e-18
3.009527e-18
8.640570e-18
1.944758e-16
1.544686e-15
8.703850e-15
3.869216e-14
1.339446e-13
3.048865e-13
-7.518349e-14
-5.436269e-12
-3.617291e-11
-1.651917e-10
-5.910256e-10
-1.569811e-09
-1.761999e-09
9.810326e-09
6.467465e-08
1.886606e-07
3.735263e-07
6.100806e-07
9.236988e-07
1.390765e-06
2.125674e-06
3.255839e-06
4.892371e-06
7.090476e-06
9.797912e-06
1.280602e-05
1.576599e-05
1.850643e-05
2.223651e-05
3.238451e-05
6.008910e-05
1.111311e-04
1.708015e-04
2.145243e-04
2.297702e-04
2.199134e-04
1.959792e-04
1.684125e-04
1.432128e-04
1.223553e-04
1.056490e-04
9.226565e-05
8.149113e-05
7.287783e-05
6.614978e-05
6.104627e-05
5.722819e-05
5.428049e-05
5.176377e-05
4.929193e-05
4.660582e-05
4.360167e-05
4.031521e-05
3.688178e-05
3.347754e-05
3.025351e-05
2.729221e-05
2.460341e-05
2.214655e-05
1.986035e-05
1.769161e-05
1.561951e-05
1.366628e-05
1.188688e-05
1.034284e-05
9.076800e-06
8.102771e-06
7.414829e-06
7.005688e-06
6.883528e-06
7.079937e-06
7.648383e-06
8.656757e-06
1.017822e-05
1.228292e-05
1.503110e-05
1.846605e-05
2.260447e-05
2.742106e-05
3.282533e-05
3.863010e-05
4.451617e-05
5.000281e-05
5.444035e-05
5.704490e-05
5.699127e-05
5.356623e-05
4.636066e-05
3.545415e-05
2.153390e-05
5.899154e-06
0.000000e+00
0.000000e+00
-0.000000e+00
-0.000000e+00
-0.000000e+00
1.975786e-19
8.969958e-19
-3.556414e-18
4.712221e-19
3.723376e-18
7.439131e-19
1.276368e-18
1.276368e-18
2.518310e-18
-3.161006e-19
2.466051e-18
-3.907769e-18
-9.326510e-19
-2.137768e-18
-1.880961e-19
-4.490966e-18
-4.249663e-18
-4.145058e-18
3.623540e-18
3.128144e-18
-2.789265e-18
-2.580493e-18
-3.208501e-18
-4.204551e-18
-5.320550e-18
-1.581703e-18
-5.522010e-18
-7.042314e-19
-6.779225e-19
3.686757e-18
6.435348e-19
2.475594e-18
3.612535e-18
1.369852e-18
-2.318742e-19
-2.656020e-18
1.033493e-18
7.634001e-18
-9.711902e-18
1.653411e-18
2.270462e-17
1.359971e-17
2.504444e-17
1.079080e-16
7.006460e-16
3.836744e-15
1.646270e-14
5.347050e-14
9.663653e-14
-2.477429e-13
-3.460812e-12
-2.059483e-11
-9.035128e-11
-3.127520e-10
-7.656996e-10
-3.454179e-10
8.047071e-09
4.164682e-08
1.118868e-07
2.168545e-07
3.595951e-07
5.653059e-07
8.901635e-07
1.417631e-06
2.251693e-06
3.508381e-06
5.299980e-06
7.708263e-06
1.074330e-05
1.428322e-05
1.799936e-05
2.131029e-05
2.351332e-05
2.460307e-05
2.774642e-05
4.399040e-05
9.013934e-05
1.651675e-04
2.375784e-04
2.753842e-04
2.720774e-04
2.407534e-04
1.990942e-04
1.598419e-04
1.285270e-04
1.057621e-04
8.999324e-05
7.924687e-05
7.185817e-05
6.657388e-05
6.249170e-05
5.896996e-05
5.556575e-05
5.203354e-05
4.831097e-05
4.446855e-05
4.065878e-05
3.705742e-05
3.378972e-05
3.088319e-05
2.827483e-05
2.584904e-05
2.347834e-05
2.106451e-05
1.857848e-05
1.607760e-05
1.368235e-05
1.152361e-05
9.693479e-06
8.224925e-06
7.101980e-06
6.285273e-06
5.737404e-06
5.440877e-06
5.408023e-06
5.684099e-06
6.344050e-06
7.483556e-06
9.206408e-06
1.161126e-05
1.478015e-05
1.876865e-05
2.359513e-05
2.922433e-05
3.554156e-05
4.231590e-05
4.915660e-05
5.547499e-05
6.047328e-05
6.318804e-05
6.261200e-05
5.789732e-05
4.860815e-05
3.495493e-05
1.792717e-05
0.000000e+00
0.000000e+00
-0.000000e+00
-0.000000e+00
-0.000000e+00
-1.383050e-18
3.951571e-18
3.161257e-18
1.975786e-19
-4.255831e-18
-2.477624e-18
8.051462e-19
2.032256e-18
1.347261e-18
-3.329857e-18
1.064902e-18
-1.604301e-18
-2.797176e-18
-2.440564e-19
-1.319656e-18
-3.029095e-18
-1.894020e-18
2.821182e-18
4.383741e-18
-6.564316e-18
-8.792442e-19
-4.505859e-18
5.742524e-18
-1.985333e-18
-3.057978e-18
-1.307234e-18
4.975771e-19
-2.765737e-18
1.314360e-18
2.573246e-18
2.561921e-19
6.857508e-18
3.012150e-18
8.753491e-18
-2.966032e-19
2.178045e-18
8.572131e-18
-1.351014e-17
-3.053876e-17
-2.739326e-17
4.459148e-18
3.306739e-17
8.310166e-17
3.162871e-16
1.594017e-15
6.618692e-15
1.973947e-14
2.151393e-14
-2.152450e-13
-2.015020e-12
-1.113341e-11
-4.730872e-11
-1.578072e-10
-3.428432e-10
2.065058e-10
5.801269e-09
2.527184e-08
6.373070e-08
1.223311e-07
2.074739e-07
3.395861e-07
5.583739e-07
9.231606e-07
1.512206e-06
2.420699e-06
3.755678e-06
5.627202e-06
8.133670e-06
1.133527e-05
1.520658e-05
1.956195e-05
2.396011e-05
2.762208e-05
2.945947e-05
2.850401e-05
2.562360e-05
2.780784e-05
5.434874e-05
1.257598e-04
2.267451e-04
3.071178e-04
3.328439e-04
3.079756e-04
2.559880e-04
1.997525e-04
1.526909e-04
1.187821e-04
9.665146e-05
8.302820e-05
7.464986e-05
6.902863e-05
6.450801e-05
6.015444e-05
5.560728e-05
5.086857e-05
4.614255e-05
4.171884e-05
3.783529e-05
3.457788e-05
3.187666e-05
2.955209e-05
2.736342e-05
2.507365e-05
2.253563e-05
1.974971e-05
1.684822e-05
1.402342e-05
1.145318e-05
9.259655e-06
7.498817e-06
6.164587e-06
5.201252e-06
4.527472e-06
4.071402e-06
3.805973e-06
3.769108e-06
4.060373e-06
4.817425e-06
6.184191e-06
8.283616e-06
1.120228e-05
1.498668e-05
1.964528e-05
2.514828e-05
3.141771e-05
3.830301e-05
4.554027e-05
5.269947e-05
5.913347e-05
6.395603e-05
6.608673e-05
6.439752e-05
5.796654e-05
4.639422e-05
3.008476e-05
0.000000e+00
0.000000e+00
-0.000000e+00
3.951571e-19
-1.975786e-19
-1.489731e-18
2.173364e-18
-3.739160e-18
-1.565796e-18
-2.127916e-18
-7.903142e-19
-6.410419e-19
3.329715e-18
2.299365e-18
-2.322369e-18
-2.741734e-18
-4.527353e-18
8.663946e-19
1.057796e-18
3.920876e-18
4.915219e-18
4.684933e-18
2.252990e-18
9.950161e-19
-4.373243e-19
3.101851e-18
3.682078e-19
-2.747363e-18
2.831140e-18
7.222767e-21
2.615466e-19
4.887267e-18
3.591465e-18
1.212133e-18
2.238786e-18
2.989820e-18
-3.810521e-18
1.683217e-18
-7.892804e-19
5.173351e-19
-4.317932e-18
-6.411957e-18
-1.517279e-17
-1.965567e-17
-1.437980e-17
8.929576e-18
2.916771e-17
1.434075e-16
6.463421e-16
2.519168e-15
6.570315e-15
-8.342341e-16
-1.422756e-13
-1.093523e-12
-5.732827e-12
-2.370440e-11
-7.562205e-11
-1.356287e-10
3.387301e-10
3.804758e-09
1.452644e-08
3.496340e-08
6.715293e-08
1.171736e-07
1.999002e-07
3.425027e-07
5.865057e-07
9.897290e-07
1.627110e-06
2.589192e-06
3.978145e-06
5.901160e-06
8.459621e-06
1.173079e-05
1.573706e-05
2.039633e-05
2.544750e-05
3.035467e-05
3.421246e-05
3.572065e-05
3.337219e-05
2.637651e-05
1.755402e-05
1.973507e-05
6.197795e-05
1.645997e-04
2.926942e-04
3.788766e-04
3.914487e-04
3.465726e-04
2.769623e-04
2.090138e-04
1.558398e-04
1.194985e-04
9.665895e-05
8.266984e-05
7.350796e-05
6.652019e-05
6.030142e-05
5.432670e-05
4.865275e-05
4.357404e-05
3.932010e-05
3.594908e-05
3.334891e-05
3.124113e-05
2.924147e-05
2.700772e-05
2.437159e-05
2.135842e-05
1.812138e-05
1.487148e-05
1.183343e-05
9.203729e-06
7.098256e-06
5.515615e-06
4.349528e-06
3.451569e-06
2.710093e-06
2.103976e-06
1.710503e-06
1.674567e-06
2.162463e-06
3.322876e-06
5.266599e-06
8.064147e-06
1.175269e-05
1.634208e-05
2.181254e-05
2.810107e-05
3.507749e-05
4.251231e-05
5.003860e-05
5.711046e-05
6.296744e-05
6.662873e-05
6.695678e-05
6.283029e-05
5.343427e-05
3.861009e-05
0.000000e+00
0.000000e+00
-0.000000e+00
-1.185471e-18
9.878928e-19
1.778207e-18
-2.884755e-19
1.185471e-18
-1.109406e-18
-4.179766e-18
-1.688672e-19
2.331753e-18
4.762566e-18
-1.984768e-18
-3.106442e-19
1.082809e-18
4.843226e-18
-2.228800e-18
-5.200868e-18
-1.881347e-18
9.352707e-19
4.187716e-18
2.114603e-18
2.627345e-18
3.836054e-18
-6.901351e-20
-2.433603e-18
4.140432e-18
4.158911e-18
2.230004e-18
3.441297e-18
1.301899e-19
5.545307e-18
2.827677e-18
-3.731659e-18
-3.120230e-18
-7.363638e-18
-2.125008e-17
-1.538002e-17
2.427925e-18
9.425056e-18
1.470831e-17
-3.219874e-18
-1.739437e-17
-2.969278e-18
1.240564e-17
5.464235e-17
2.547105e-16
8.822390e-16
1.869256e-15
-4.881085e-15
-8.173381e-14
-5.588521e-13
-2.817771e-12
-1.135272e-11
-3.419492e-11
-4.292166e-11
2.999618e-10
2.308448e-09
7.944027e-09
1.852099e-08
3.591277e-08
6.474808e-08
1.151071e-07
2.049892e-07
3.627571e-07
6.299224e-07
1.063498e-06
1.737056e-06
2.739890e-06
4.173404e-06
6.143503e-06
8.747975e-06
1.205900e-05
1.610167e-05
2.082771e-05
2.607888e-05
3.152967e-05
3.660233e-05
4.036909e-05
4.148378e-05
3.825884e-05
2.905650e-05
1.386563e-05
-1.582580e-06
2.748424e-06
6.568547e-05
2.041629e-04
3.624155e-04
4.577347e-04
4.612847e-04
4.000973e-04
3.146787e-04
2.342928e-04
1.721622e-04
1.292827e-04
1.012561e-04
8.293163e-05
7.018664e-05
6.051217e-05
5.277119e-05
4.653114e-05
4.163951e-05
3.801932e-05
3.545105e-05
3.348610e-05
3.160941e-05
2.944544e-05