# vtk DataFile Version 3.0
Resultado Projeto 3
ASCII
DATASET STRUCTURED_GRID
DIMENSIONS 70 30 1 
POINTS 2100 double
0.000000e+00 0.000000e+00 0.000000e+00
5.072464e-02 0.000000e+00 0.000000e+00
1.014493e-01 0.000000e+00 0.000000e+00
1.521739e-01 0.000000e+00 0.000000e+00
2.028986e-01 0.000000e+00 0.000000e+00
2.536232e-01 0.000000e+00 0.000000e+00
3.043478e-01 0.000000e+00 0.000000e+00
3.550725e-01 0.000000e+00 0.000000e+00
4.057971e-01 0.000000e+00 0.000000e+00
4.565217e-01 0.000000e+00 0.000000e+00
5.072464e-01 0.000000e+00 0.000000e+00
5.579710e-01 0.000000e+00 0.000000e+00
6.086957e-01 0.000000e+00 0.000000e+00
6.594203e-01 0.000000e+00 0.000000e+00
7.101449e-01 0.000000e+00 0.000000e+00
7.608696e-01 0.000000e+00 0.000000e+00
8.115942e-01 0.000000e+00 0.000000e+00
8.623188e-01 0.000000e+00 0.000000e+00
9.130435e-01 0.000000e+00 0.000000e+00
9.637681e-01 0.000000e+00 0.000000e+00
1.014493e+00 0.000000e+00 0.000000e+00
1.065217e+00 0.000000e+00 0.000000e+00
1.115942e+00 0.000000e+00 0.000000e+00
1.166667e+00 0.000000e+00 0.000000e+00
1.217391e+00 0.000000e+00 0.000000e+00
1.268116e+00 0.000000e+00 0.000000e+00
1.318841e+00 0.000000e+00 0.000000e+00
1.369565e+00 0.000000e+00 0.000000e+00
1.420290e+00 0.000000e+00 0.000000e+00
1.471014e+00 0.000000e+00 0.000000e+00
1.521739e+00 0.000000e+00 0.000000e+00
1.572464e+00 0.000000e+00 0.000000e+00
1.623188e+00 0.000000e+00 0.000000e+00
1.673913e+00 0.000000e+00 0.000000e+00
1.724638e+00 0.000000e+00 0.000000e+00
1.775362e+00 0.000000e+00 0.000000e+00
1.826087e+00 0.000000e+00 0.000000e+00
1.876812e+00 0.000000e+00 0.000000e+00
1.927536e+00 0.000000e+00 0.000000e+00
1.978261e+00 0.000000e+00 0.000000e+00
2.028986e+00 0.000000e+00 0.000000e+00
2.079710e+00 0.000000e+00 0.000000e+00
2.130435e+00 0.000000e+00 0.000000e+00
2.181159e+00 0.000000e+00 0.000000e+00
2.231884e+00 0.000000e+00 0.000000e+00
2.282609e+00 0.000000e+00 0.000000e+00
2.333333e+00 0.000000e+00 0.000000e+00
2.384058e+00 0.000000e+00 0.000000e+00
2.434783e+00 0.000000e+00 0.000000e+00
2.485507e+00 0.000000e+00 0.000000e+00
2.536232e+00 0.000000e+00 0.000000e+00
2.586957e+00 0.000000e+00 0.000000e+00
2.637681e+00 0.000000e+00 0.000000e+00
2.688406e+00 0.000000e+00 0.000000e+00
2.739130e+00 0.000000e+00 0.000000e+00
2.789855e+00 0.000000e+00 0.000000e+00
2.840580e+00 0.000000e+00 0.000000e+00
2.891304e+00 0.000000e+00 0.000000e+00
2.942029e+00 0.000000e+00 0.000000e+00
2.992754e+00 0.000000e+00 0.000000e+00
3.043478e+00 0.000000e+00 0.000000e+00
3.094203e+00 0.000000e+00 0.000000e+00
3.144928e+00 0.000000e+00 0.000000e+00
3.195652e+00 0.000000e+00 0.000000e+00
3.246377e+00 0.000000e+00 0.000000e+00
3.297101e+00 0.000000e+00 0.000000e+00
3.347826e+00 0.000000e+00 0.000000e+00
3.398551e+00 0.000000e+00 0.000000e+00
3.449275e+00 0.000000e+00 0.000000e+00
3.500000e+00 0.000000e+00 0.000000e+00
0.000000e+00 3.448276e-02 0.000000e+00
5.072464e-02 3.448276e-02 0.000000e+00
1.014493e-01 3.448276e-02 0.000000e+00
1.521739e-01 3.448276e-02 0.000000e+00
2.028986e-01 3.448276e-02 0.000000e+00
2.536232e-01 3.448276e-02 0.000000e+00
3.043478e-01 3.448276e-02 0.000000e+00
3.550725e-01 3.448276e-02 0.000000e+00
4.057971e-01 3.448276e-02 0.000000e+00
4.565217e-01 3.448276e-02 0.000000e+00
5.072464e-01 3.448276e-02 0.000000e+00
5.579710e-01 3.448276e-02 0.000000e+00
6.086957e-01 3.448276e-02 0.000000e+00
6.594203e-01 3.448276e-02 0.000000e+00
7.101449e-01 3.448276e-02 0.000000e+00
7.608696e-01 3.448276e-02 0.000000e+00
8.115942e-01 3.448276e-02 0.000000e+00
8.623188e-01 3.448276e-02 0.000000e+00
9.130435e-01 3.448276e-02 0.000000e+00
9.637681e-01 3.448276e-02 0.000000e+00
1.014493e+00 3.448276e-02 0.000000e+00
1.065217e+00 3.448276e-02 0.000000e+00
1.115942e+00 3.448276e-02 0.000000e+00
1.166667e+00 3.448276e-02 0.000000e+00
1.217391e+00 3.448276e-02 0.000000e+00
1.268116e+00 3.448276e-02 0.000000e+00
1.318841e+00 3.448276e-02 0.000000e+00
1.369565e+00 3.448276e-02 0.000000e+00
1.420290e+00 3.448276e-02 0.000000e+00
1.471014e+00 3.448276e-02 0.000000e+00
1.521739e+00 3.448276e-02 0.000000e+00
1.572464e+00 3.448276e-02 0.000000e+00
1.623188e+00 3.448276e-02 0.000000e+00
1.673913e+00 3.448276e-02 0.000000e+00
1.724638e+00 3.448276e-02 0.000000e+00
1.775362e+00 3.448276e-02 0.000000e+00
1.826087e+00 3.448276e-02 0.000000e+00
1.876812e+00 3.448276e-02 0.000000e+00
1.927536e+00 3.448276e-02 0.000000e+00
1.978261e+00 3.448276e-02 0.000000e+00
2.028986e+00 3.448276e-02 0.000000e+00
2.079710e+00 3.448276e-02 0.000000e+00
2.130435e+00 3.448276e-02 0.000000e+00
2.181159e+00 3.448276e-02 0.000000e+00
2.231884e+00 3.448276e-02 0.000000e+00
2.282609e+00 3.448276e-02 0.000000e+00
2.333333e+00 3.448276e-02 0.000000e+00
2.384058e+00 3.448276e-02 0.000000e+00
2.434783e+00 3.448276e-02 0.000000e+00
2.485507e+00 3.448276e-02 0.000000e+00
2.536232e+00 3.448276e-02 0.000000e+00
2.586957e+00 3.448276e-02 0.000000e+00
2.637681e+00 3.448276e-02 0.000000e+00
2.688406e+00 3.448276e-02 0.000000e+00
2.739130e+00 3.448276e-02 0.000000e+00
2.789855e+00 3.448276e-02 0.000000e+00
2.840580e+00 3.448276e-02 0.000000e+00
2.891304e+00 3.448276e-02 0.000000e+00
2.942029e+00 3.448276e-02 0.000000e+00
2.992754e+00 3.448276e-02 0.000000e+00
3.043478e+00 3.448276e-02 0.000000e+00
3.094203e+00 3.448276e-02 0.000000e+00
3.144928e+00 3.448276e-02 0.000000e+00
3.195652e+00 3.448276e-02 0.000000e+00
3.246377e+00 3.448276e-02 0.000000e+00
3.297101e+00 3.448276e-02 0.000000e+00
3.347826e+00 3.448276e-02 0.000000e+00
3.398551e+00 3.448276e-02 0.000000e+00
3.449275e+00 3.448276e-02 0.000000e+00
3.500000e+00 3.448276e-02 0.000000e+00
0.000000e+00 6.896552e-02 0.000000e+00
5.072464e-02 6.896552e-02 0.000000e+00
1.014493e-01 6.896552e-02 0.000000e+00
1.521739e-01 6.896552e-02 0.000000e+00
2.028986e-01 6.896552e-02 0.000000e+00
2.536232e-01 6.896552e-02 0.000000e+00
3.043478e-01 6.896552e-02 0.000000e+00
3.550725e-01 6.896552e-02 0.000000e+00
4.057971e-01 6.896552e-02 0.000000e+00
4.565217e-01 6.896552e-02 0.000000e+00
5.072464e-01 6.896552e-02 0.000000e+00
5.579710e-01 6.896552e-02 0.000000e+00
6.086957e-01 6.896552e-02 0.000000e+00
6.594203e-01 6.896552e-02 0.000000e+00
7.101449e-01 6.896552e-02 0.000000e+00
7.608696e-01 6.896552e-02 0.000000e+00
8.115942e-01 6.896552e-02 0.000000e+00
8.623188e-01 6.896552e-02 0.000000e+00
9.130435e-01 6.896552e-02 0.000000e+00
9.637681e-01 6.896552e-02 0.000000e+00
1.014493e+00 6.896552e-02 0.000000e+00
1.065217e+00 6.896552e-02 0.000000e+00
1.115942e+00 6.896552e-02 0.000000e+00
1.166667e+00 6.896552e-02 0.000000e+00
1.217391e+00 6.896552e-02 0.000000e+00
1.268116e+00 6.896552e-02 0.000000e+00
1.318841e+00 6.896552e-02 0.000000e+00
1.369565e+00 6.896552e-02 0.000000e+00
1.420290e+00 6.896552e-02 0.000000e+00
1.471014e+00 6.896552e-02 0.000000e+00
1.521739e+00 6.896552e-02 0.000000e+00
1.572464e+00 6.896552e-02 0.000000e+00
1.623188e+00 6.896552e-02 0.000000e+00
1.673913e+00 6.896552e-02 0.000000e+00
1.724638e+00 6.896552e-02 0.000000e+00
1.775362e+00 6.896552e-02 0.000000e+00
1.826087e+00 6.896552e-02 0.000000e+00
1.876812e+00 6.896552e-02 0.000000e+00
1.927536e+00 6.896552e-02 0.000000e+00
1.978261e+00 6.896552e-02 0.000000e+00
2.028986e+00 6.896552e-02 0.000000e+00
2.079710e+00 6.896552e-02 0.000000e+00
2.130435e+00 6.896552e-02 0.000000e+00
2.181159e+00 6.896552e-02 0.000000e+00
2.231884e+00 6.896552e-02 0.000000e+00
2.282609e+00 6.896552e-02 0.000000e+00
2.333333e+00 6.896552e-02 0.000000e+00
2.384058e+00 6.896552e-02 0.000000e+00
2.434783e+00 6.896552e-02 0.000000e+00
2.485507e+00 6.896552e-02 0.000000e+00
2.536232e+00 6.896552e-02 0.000000e+00
2.586957e+00 6.896552e-02 0.000000e+00
2.637681e+00 6.896552e-02 0.000000e+00
2.688406e+00 6.896552e-02 0.000000e+00
2.739130e+00 6.896552e-02 0.000000e+00
2.789855e+00 6.896552e-02 0.000000e+00
2.840580e+00 6.896552e-02 0.000000e+00
2.891304e+00 6.896552e-02 0.000000e+00
2.942029e+00 6.896552e-02 0.000000e+00
2.992754e+00 6.896552e-02 0.000000e+00
3.043478e+00 6.896552e-02 0.000000e+00
3.094203e+00 6.896552e-02 0.000000e+00
3.144928e+00 6.896552e-02 0.000000e+00
3.195652e+00 6.896552e-02 0.000000e+00
3.246377e+00 6.896552e-02 0.000000e+00
3.297101e+00 6.896552e-02 0.000000e+00
3.347826e+00 6.896552e-02 0.000000e+00
3.398551e+00 6.896552e-02 0.000000e+00
3.449275e+00 6.896552e-02 0.000000e+00
3.500000e+00 6.896552e-02 0.000000e+00
0.000000e+00 1.034483e-01 0.000000e+00
5.072464e-02 1.034483e-01 0.000000e+00
1.014493e-01 1.034483e-01 0.000000e+00
1.521739e-01 1.034483e-01 0.000000e+00
2.028986e-01 1.034483e-01 0.000000e+00
2.536232e-01 1.034483e-01 0.000000e+00
3.043478e-01 1.034483e-01 0.000000e+00
3.550725e-01 1.034483e-01 0.000000e+00
4.057971e-01 1.034483e-01 0.000000e+00
4.565217e-01 1.034483e-01 0.000000e+00
5.072464e-01 1.034483e-01 0.000000e+00
5.579710e-01 1.034483e-01 0.000000e+00
6.086957e-01 1.034483e-01 0.000000e+00
6.594203e-01 1.034483e-01 0.000000e+00
7.101449e-01 1.034483e-01 0.000000e+00
7.608696e-01 1.034483e-01 0.000000e+00
8.115942e-01 1.034483e-01 0.000000e+00
8.623188e-01 1.034483e-01 0.000000e+00
9.130435e-01 1.034483e-01 0.000000e+00
9.637681e-01 1.034483e-01 0.000000e+00
1.014493e+00 1.034483e-01 0.000000e+00
1.065217e+00 1.034483e-01 0.000000e+00
1.115942e+00 1.034483e-01 0.000000e+00
1.166667e+00 1.034483e-01 0.000000e+00
1.217391e+00 1.034483e-01 0.000000e+00
1.268116e+00 1.034483e-01 0.000000e+00
1.318841e+00 1.034483e-01 0.000000e+00
1.369565e+00 1.034483e-01 0.000000e+00
1.420290e+00 1.034483e-01 0.000000e+00
1.471014e+00 1.034483e-01 0.000000e+00
1.521739e+00 1.034483e-01 0.000000e+00
1.572464e+00 1.034483e-01 0.000000e+00
1.623188e+00 1.034483e-01 0.000000e+00
1.673913e+00 1.034483e-01 0.000000e+00
1.724638e+00 1.034483e-01 0.000000e+00
1.775362e+00 1.034483e-01 0.000000e+00
1.826087e+00 1.034483e-01 0.000000e+00
1.876812e+00 1.034483e-01 0.000000e+00
1.927536e+00 1.034483e-01 0.000000e+00
1.978261e+00 1.034483e-01 0.000000e+00
2.028986e+00 1.034483e-01 0.000000e+00
2.079710e+00 1.034483e-01 0.000000e+00
2.130435e+00 1.034483e-01 0.000000e+00
[...]
POINT_DATA 2100
SCALARS RES_Cont double
LOOKUP_TABLE default
0.000000e+00
0.000000e+00
0.000000e+00
0.000000e+00
0.000000e+00
0.000000e+00
0.000000e+00
0.000000e+00
0.000000e+00
0.000000e+00
0.000000e+00
0.000000e+00
0.000000e+00
0.000000e+00
0.000000e+00
0.000000e+00
0.000000e+00
0.000000e+00
0.000000e+00
0.000000e+00
0.000000e+00
0.000000e+00
0.000000e+00
0.000000e+00
0.000000e+00
0.000000e+00
0.000000e+00
0.000000e+00
0.000000e+00
0.000000e+00
0.000000e+00
0.000000e+00
0.000000e+00
0.000000e+00
0.000000e+00
0.000000e+00
0.000000e+00
0.000000e+00
0.000000e+00
0.000000e+00
0.000000e+00
0.000000e+00
0.000000e+00
0.000000e+00
0.000000e+00
0.000000e+00
0.000000e+00
0.000000e+00
0.000000e+00
0.000000e+00
0.000000e+00
0.000000e+00
0.000000e+00
0.000000e+00
0.000000e+00
0.000000e+00
0.000000e+00
0.000000e+00
0.000000e+00
0.000000e+00
0.000000e+00
0.000000e+00
0.000000e+00
0.000000e+00
0.000000e+00
0.000000e+00
0.000000e+00
0.000000e+00
0.000000e+00
0.000000e+00
0.000000e+00
4.698404e-18
4.438963e-18
7.198552e-17
9.752827e-16
9.518724e-15
7.463751e-14
4.889125e-13
2.749670e-12
1.355690e-11
5.953175e-11
2.357688e-10
8.507237e-10
2.820404e-09
8.652334e-09
2.471040e-08
6.604028e-08
1.659085e-07
3.933087e-07
8.827235e-07
1.880680e-06
3.811785e-06
7.361024e-06
1.355735e-05
2.382624e-05
3.996196e-05
6.396799e-05
9.774326e-05
1.426572e-04
1.991319e-04
2.663829e-04
3.424318e-04
4.243965e-04
5.089641e-04
5.928978e-04
6.734486e-04
7.486003e-04
8.171467e-04
8.786355e-04
9.332368e-04
9.815811e-04
1.024603e-03
1.063407e-03
1.099157e-03
1.132999e-03
1.165994e-03
1.199070e-03
1.232990e-03
1.268314e-03
1.305385e-03
1.344316e-03
1.384990e-03
1.427080e-03
1.470071e-03
1.513311e-03
1.556057e-03
1.597539e-03
1.637017e-03
1.673836e-03
1.707471e-03
1.737552e-03
1.763883e-03
1.786435e-03
1.805331e-03
1.820818e-03
1.833231e-03
1.842961e-03
1.850419e-03
1.856009e-03
0.000000e+00
0.000000e+00
2.096617e-18
6.447196e-18
8.995898e-17
1.165171e-15
1.140487e-14
8.957749e-14
5.874338e-13
3.308190e-12
1.633361e-11
7.182917e-11
2.848856e-10
1.029405e-09
3.417283e-09
1.049551e-08
3.000129e-08
8.022194e-08
2.015277e-07
4.773449e-07
1.069201e-06
2.269839e-06
4.574281e-06
8.758708e-06
1.594036e-05
2.757323e-05
4.532835e-05
7.083373e-05
1.053125e-04
1.492312e-04
2.020972e-04
2.624928e-04
3.283311e-04
3.972303e-04
4.668801e-04
5.353104e-04
6.010324e-04
6.630688e-04
7.209113e-04
7.744401e-04
8.238342e-04
8.694862e-04
9.119296e-04
9.517786e-04
9.896804e-04
1.026276e-03
1.062168e-03
1.097891e-03
1.133886e-03
1.170480e-03
1.207865e-03
1.246089e-03
1.285054e-03
1.324516e-03
1.364108e-03
1.403364e-03
1.441755e-03
1.478727e-03
1.513746e-03
1.546334e-03
1.576104e-03
1.602784e-03
1.626227e-03
1.646413e-03
1.663442e-03
1.677510e-03
1.688888e-03
1.697896e-03
1.704876e-03
1.710168e-03
0.000000e+00
0.000000e+00
5.352912e-18
8.559103e-18
1.098585e-16
1.532333e-15
1.503414e-14
1.183019e-13
7.770182e-13
4.383746e-12
2.168494e-11
9.554686e-11
3.796798e-10
1.374437e-09
4.570163e-09
1.405517e-08
4.021188e-08
1.075455e-07
2.699506e-07
6.379840e-07
1.422952e-06
2.999757e-06
5.981453e-06
1.128128e-05
2.011653e-05
3.389848e-05
5.397870e-05
8.129402e-05
1.160377e-04
1.575129e-04
2.042534e-04
2.543659e-04
3.059464e-04
3.574138e-04
4.076761e-04
4.561324e-04
5.025705e-04
5.470294e-04
5.896772e-04
6.307252e-04
6.703805e-04
7.088276e-04
7.462276e-04
7.827243e-04
8.184526e-04
8.535435e-04
8.881262e-04
9.223239e-04
9.562472e-04
9.899838e-04
1.023586e-03
1.057062e-03
1.090360e-03
1.123372e-03
1.155926e-03
1.187794e-03
1.218706e-03
1.248362e-03
1.276458e-03
1.302705e-03
1.326851e-03
1.348704e-03
1.368140e-03
1.385113e-03
1.399657e-03
1.411878e-03
1.421942e-03
1.430061e-03
1.436475e-03
1.441437e-03
0.000000e+00
0.000000e+00
1.538739e-18
6.482059e-18
1.565548e-16
2.104918e-15
2.075273e-14
1.635135e-13
1.076393e-12
6.086890e-12
3.018324e-11
1.333193e-10
5.310525e-10
1.926716e-09
6.419037e-09
1.977035e-08
5.660569e-08
1.513433e-07
3.791845e-07
8.925312e-07
1.976742e-06
4.121693e-06
8.088677e-06
1.492760e-05
2.588286e-05
4.214691e-05
6.449660e-05
9.294762e-05
1.266048e-04
1.638131e-04
2.025607e-04
2.409631e-04
2.776403e-04
3.118814e-04
3.436026e-04
3.731725e-04
4.011962e-04
4.283251e-04
4.551244e-04
4.820034e-04
5.091971e-04
5.367811e-04
5.647060e-04
5.928375e-04
6.209960e-04
6.489910e-04
6.766471e-04
7.038227e-04
7.304196e-04
7.563853e-04
7.817078e-04
8.064053e-04
8.305119e-04
8.540609e-04
8.770690e-04
8.995227e-04
9.213699e-04
9.425167e-04
9.628318e-04
9.821557e-04
1.000316e-03
1.017143e-03
1.032492e-03
1.046251e-03
1.058360e-03
1.068810e-03
1.077648e-03
1.084966e-03
1.090899e-03
1.095604e-03
0.000000e+00
0.000000e+00
6.838393e-18
1.328453e-17
2.310851e-16
2.950152e-15
2.906913e-14
2.297129e-13
1.516562e-12
8.602286e-12
4.279070e-11
1.895997e-10
7.575098e-10
2.755850e-09
9.202191e-09
2.838572e-08
8.130729e-08
2.171265e-07
5.420992e-07
1.267505e-06
2.776851e-06
5.697452e-06
1.093552e-05
1.961025e-05
3.283291e-05
5.134849e-05
7.516764e-05
1.033788e-04
1.342705e-04
1.657341e-04
1.957769e-04
2.229404e-04
2.465019e-04
2.664523e-04
2.833218e-04
2.979483e-04
3.112597e-04
3.241103e-04
3.371793e-04
3.509264e-04
3.655892e-04
3.812091e-04
3.976718e-04
4.147554e-04
4.321780e-04
4.496419e-04
4.668709e-04
4.836393e-04
4.997925e-04
5.152556e-04
5.300339e-04
5.442026e-04
5.578886e-04
5.712469e-04
5.844341e-04
5.975823e-04
6.107777e-04
6.240456e-04
6.373446e-04
6.505697e-04
6.635642e-04
6.761380e-04
6.880892e-04
6.992268e-04
7.093892e-04
7.184597e-04
7.263737e-04
7.331206e-04
7.387394e-04
7.433096e-04
0.000000e+00
0.000000e+00
4.717546e-18
1.649229e-17
3.168429e-16
4.118020e-15
4.076150e-14
3.232018e-13
2.141815e-12
1.219673e-11
6.091320e-11
2.709553e-10
1.086525e-09
3.965517e-09
1.327405e-08
4.099974e-08
1.173929e-07
3.126068e-07
7.756690e-07
1.794450e-06
3.868320e-06
7.760337e-06
1.446695e-05
2.504078e-05
4.026106e-05
6.025687e-05
8.427086e-05
1.107159e-04
1.375282e-04
1.626652e-04
1.845435e-04
2.022802e-04
2.157120e-04
2.252562e-04
2.316998e-04
2.359896e-04
2.390641e-04
2.417382e-04
2.446404e-04
2.481893e-04
2.526004e-04
2.579117e-04
2.640204e-04
2.707260e-04
2.777732e-04
2.848940e-04
2.918441e-04
2.984337e-04
3.045485e-04
3.101614e-04
3.153339e-04
3.202056e-04
3.249751e-04
3.298733e-04
3.351329e-04
3.409573e-04
3.474937e-04
3.548138e-04
3.629037e-04
3.716652e-04
3.809261e-04
3.904603e-04
4.000120e-04
4.093215e-04
4.181495e-04
4.262969e-04
4.336173e-04
4.400233e-04
4.454851e-04
4.500238e-04
0.000000e+00
0.000000e+00
2.469825e-18
1.010217e-17
4.343279e-16
5.723355e-15
5.680154e-14
4.524624e-13
3.012695e-12
1.724084e-11
8.652945e-11
3.867229e-10
1.557403e-09
5.704146e-09
1.913843e-08
5.914543e-08
1.690054e-07
4.475353e-07
1.099092e-06
2.502043e-06
5.272532e-06
1.026963e-05
1.847317e-05
3.070544e-05
4.726870e-05
6.766747e-05
9.058203e-05
1.141361e-04
1.363434e-04
1.555429e-04
1.706737e-04
1.813455e-04
1.877481e-04
1.904791e-04
1.903558e-04
1.882560e-04
1.850011e-04
1.812837e-04
1.776304e-04
1.743931e-04
1.717594e-04
1.697748e-04
1.683742e-04
1.674154e-04
1.667148e-04
1.660816e-04
1.653486e-04
1.643977e-04
1.631792e-04
1.617222e-04
1.601353e-04
1.585976e-04
1.573405e-04
1.566223e-04
1.566981e-04
1.577897e-04
1.600583e-04
1.635842e-04
1.683560e-04
1.742701e-04
1.811411e-04
1.887207e-04
1.967219e-04
2.048460e-04
2.128090e-04
2.203627e-04
2.273107e-04
2.335168e-04
2.389058e-04
2.434593e-04
0.000000e+00
0.000000e+00
-1.416097e-18
3.204371e-17
5.943442e-16
7.862517e-15
7.845645e-14
6.285901e-13
4.210403e-12
2.424067e-11
1.223791e-10
5.499504e-10
2.225228e-09
8.178587e-09
2.748488e-08
8.484489e-08
2.412569e-07
6.325868e-07
1.528924e-06
3.401879e-06
6.958274e-06
1.307491e-05
2.258754e-05
3.596806e-05
5.302526e-05
7.279504e-05
9.370083e-05
1.139182e-04
1.317821e-04
1.460860e-04
1.562058e-04
1.620686e-04
1.640273e-04
1.627034e-04
1.588424e-04
1.531990e-04
1.464587e-04
1.391908e-04
1.318278e-04
1.246632e-04
1.178627e-04
1.114838e-04
1.055003e-04
9.982918e-05
9.435752e-05
8.896858e-05
8.356557e-05
7.809186e-05
7.254624e-05
6.699174e-05
6.155681e-05
5.642824e-05
5.183606e-05
4.803163e-05
4.526135e-05
4.373911e-05
4.362104e-05
4.498576e-05
4.782302e-05
5.203195e-05
5.742922e-05
6.376572e-05
7.074935e-05
7.807094e-05
8.542980e-05
9.255610e-05
9.922778e-05
1.052806e-04
1.106115e-04
1.151751e-04
0.000000e+00
0.000000e+00
3.921465e-18
4.360434e-17
8.082431e-16
1.068656e-14
1.073490e-13
8.660415e-13
5.842930e-12
3.388160e-11
1.722205e-10
7.786338e-10
3.165662e-09
1.166795e-08
3.920890e-08
1.205450e-07
3.395846e-07
8.764810e-07
2.070440e-06
4.470816e-06
8.821573e-06
1.592339e-05
2.637254e-05
4.026793e-05
5.703487e-05
7.547232e-05
9.401151e-05
1.110680e-04
1.253466e-04
1.360149e-04
1.427345e-04
1.455925e-04
1.449831e-04
1.414821e-04
1.357375e-04
1.283868e-04
1.200006e-04
1.110506e-04
1.018966e-04
9.278789e-05
8.387461e-05
7.522448e-05
6.684276e-05
5.869282e-05
5.071637e-05
4.285254e-05
3.505538e-05
2.730892e-05
1.963919e-05
1.212176e-05
4.883688e-06
-1.900941e-06
-8.022298e-06
-1.325222e-05
-1.736612e-05
-2.016699e-05
-2.150828e-05
-2.131273e-05
-1.958444e-05
-1.641234e-05
-1.196477e-05
-6.475670e-06
-2.245426e-07
6.487312e-06
1.336112e-05
2.012270e-05
2.653989e-05
3.243401e-05
3.768464e-05
4.222839e-05
0.000000e+00
0.000000e+00
-7.838754e-19
5.509234e-17
1.062872e-15
1.437688e-14
1.454688e-13
1.183497e-12
8.053272e-12
4.708697e-11
2.411599e-10
1.097169e-09
4.479507e-09
1.652956e-08
5.537373e-08
1.687708e-07
4.681576e-07
1.181055e-06
2.707507e-06
5.640434e-06
1.069565e-05
1.852517e-05
2.945996e-05
4.329701e-05
5.924582e-05
7.606926e-05
9.235355e-05
1.067930e-04
1.183969e-04
1.265825e-04
1.311677e-04
1.323001e-04
1.303595e-04
1.258587e-04
1.193586e-04
1.114032e-04
1.024760e-04
9.297537e-05
8.320617e-05
7.338311e-05
6.364196e-05
5.405493e-05
4.464734e-05
3.541402e-05
2.633448e-05
1.738669e-05
8.559455e-06
-1.367261e-07
-8.660631e-06
-1.693402e-05
-2.483909e-05
-3.222069e-05
-3.889404e-05
-4.465786e-05
-4.931206e-05
-5.267809e-05
-5.461941e-05
-5.505928e-05
-5.399328e-05
-5.149457e-05
-4.771099e-05
-4.285437e-05
-3.718341e-05
-3.098241e-05
-2.453861e-05
-1.812098e-05
-1.196260e-05
-6.248437e-06
-1.109154e-06
3.379258e-06
0.000000e+00
0.000000e+00
-1.308582e-19
6.771899e-17
1.408965e-15
1.910599e-14
1.953178e-13
1.605045e-12
1.103017e-11
6.509132e-11
3.360254e-10
1.537631e-09
6.293895e-09
2.317908e-08
7.703960e-08
2.313112e-07
6.272667e-07
1.535857e-06
3.397612e-06
6.806161e-06
1.239654e-05
2.064615e-05
3.166124e-05
4.505158e-05
5.995888e-05
7.522561e-05
8.962950e-05
1.020982e-04
1.118504e-04
1.184497e-04
1.217890e-04
1.220293e-04
1.195202e-04
1.147189e-04
1.081186e-04
1.001942e-04
9.136412e-05
8.197119e-05
7.227625e-05
6.246344e-05
5.265182e-05
4.291007e-05
3.327161e-05
2.374857e-05
1.434377e-05
5.060966e-06
-4.086568e-06
-1.306867e-05
-2.183212e-05
-3.029604e-05
-3.834958e-05
-4.585290e-05
-5.264229e-05
-5.853990e-05
-6.336769e-05
-6.696435e-05
-6.920335e-05
-7.000932e-05
-6.937064e-05
-6.734585e-05
-6.406295e-05
-5.971130e-05
-5.452724e-05
-4.877532e-05
-4.272742e-05
-3.664262e-05
-3.074988e-05
-2.523532e-05
-2.023509e-05
-1.583365e-05
0.000000e+00
0.000000e+00
4.486393e-18
9.644352e-17
1.838523e-15
2.514341e-14
2.600162e-13
2.161663e-12
1.502132e-11
8.951962e-11
4.656620e-10
2.139799e-09
8.753268e-09
3.201426e-08
1.048825e-07
3.079452e-07
8.106623e-07
1.916105e-06
4.078768e-06
7.856652e-06
1.378045e-05
2.217183e-05
3.298540e-05
4.574832e-05
5.962437e-05
7.357221e-05
8.653592e-05
9.760953e-05
1.061427e-04
1.117805e-04
1.144499e-04
1.143092e-04
1.116803e-04
1.069783e-04
1.006474e-04
9.311165e-05
8.474107e-05
7.583449e-05
6.661578e-05
5.724015e-05
4.780644e-05
3.837194e-05
2.896704e-05
1.960832e-05
1.030922e-05
1.088348e-06
-8.024265e-06
-1.698249e-05
-2.572058e-05
-3.415081e-05
-4.216236e-05
-4.962240e-05
-5.637996e-05
-6.227338e-05
-6.714134e-05
-7.083691e-05
-7.324296e-05
-7.428701e-05
-7.395317e-05
-7.228907e-05
-6.940660e-05
-6.547580e-05
-6.071279e-05
-5.536316e-05
-4.968292e-05
-4.391953e-05
-3.829520e-05
-3.299401e-05
-2.815421e-05
-2.386554e-05
0.000000e+00
0.000000e+00
6.253642e-18
1.103500e-16
2.363707e-15
3.277099e-14
3.434281e-13
2.893050e-12
2.034656e-11
1.224408e-10
6.408268e-10
2.947624e-09
1.198895e-08
4.325338e-08
1.386271e-07
3.952442e-07
1.004872e-06
2.287226e-06
4.686931e-06
8.706745e-06
1.477801e-05
2.310894e-05
3.357239e-05
4.568059e-05
5.865498e-05
7.156233e-05
8.347095e-05
9.358569e-05
1.013369e-04
1.064164e-04
1.087683e-04
1.085453e-04
1.060490e-04
1.016644e-04
9.580072e-05
8.884471e-05
8.112957e-05
7.291937e-05
6.440665e-05
5.571958e-05
4.693475e-05
3.809229e-05
2.921077e-05
2.030054e-05
1.137439e-05
2.455555e-06
-6.416986e-06
-1.518547e-05
-2.377202e-05
-3.207853e-05
-3.998762e-05
-4.736486e-05
-5.406277e-05
-5.992731e-05
-6.480706e-05
-6.856494e-05
-7.109141e-05
-7.231748e-05
-7.222556e-05
-7.085626e-05
-6.830975e-05
-6.474104e-05
-6.034956e-05
-5.536438e-05
-5.002680e-05
-4.457257e-05
-3.921596e-05
-3.413707e-05
-2.947383e-05
-2.531872e-05
0.000000e+00
0.000000e+00
3.630337e-18
1.456178e-16
3.006839e-15
4.232081e-14
4.503652e-13
3.849328e-12
2.740459e-11
1.663123e-10
8.730070e-10
3.998515e-09
1.605784e-08
5.670711e-08
1.765597e-07
4.864222e-07
1.191845e-06
2.614346e-06
5.173557e-06
9.314400e-06
1.539001e-05
2.353829e-05
3.359873e-05
4.510089e-05
5.732791e-05
6.943280e-05
8.057234e-05
9.002567e-05
9.727542e-05
1.020432e-04
1.042832e-04
1.041437e-04
1.019113e-04
9.794946e-05
9.264148e-05
8.634656e-05
7.937003e-05
7.194902e-05
6.425073e-05
5.637983e-05
4.839145e-05
4.030642e-05
3.212663e-05
2.384908e-05
1.547742e-05
7.030629e-06
-1.451428e-06
-9.905503e-06
-1.824490e-05
-2.636127e-05
-3.412761e-05
-4.140228e-05
-4.803416e-05
-5.386930e-05
-5.875936e-05
-6.257193e-05
-6.520198e-05
-6.658313e-05
-6.669728e-05
-6.558071e-05
-6.332551e-05
-6.007547e-05
-5.601689e-05
-5.136509e-05
-4.634838e-05
-4.119147e-05
-3.610027e-05
-3.124973e-05
-2.677570e-05
-2.277141e-05
0.000000e+00
0.000000e+00
6.600151e-18
1.713551e-16
3.785684e-15
5.419685e-14
5.867287e-13
5.091181e-12
3.665540e-11
2.236480e-10
1.171140e-09
5.302748e-09
2.086029e-08
7.160113e-08
2.155368e-07
5.727104e-07
1.353689e-06
2.870956e-06
5.513452e-06
9.676160e-06
1.565781e-05
2.355796e-05
3.320931e-05
4.416953e-05
5.577646e-05
6.724983e-05
7.781114e-05
8.679246e-05
9.371317e-05
9.831530e-05
1.005592e-04
1.005885e-04
9.867723e-05
9.517114e-05
9.043337e-05
8.480180e-05
7.856080e-05
7.192740e-05
6.504967e-05
5.801403e-05
5.085779e-05
4.358443e-05
3.617915e-05
2.862360e-05
2.090835e-05
1.304268e-05
5.060898e-06
-2.974768e-06
-1.097444e-05
-1.882337e-05
-2.638651e-05
-3.351420e-05
-4.004873e-05
-4.583193e-05
-5.071381e-05
-5.456232e-05
-5.727368e-05
-5.878247e-05
-5.906995e-05
-5.816937e-05
-5.616699e-05
-5.319819e-05
-4.943885e-05
-4.509284e-05
-4.037708e-05
-3.550595e-05
-3.067693e-05
-2.605892e-05
-2.178438e-05
-1.794560e-05
0.000000e+00
0.000000e+00
2.729784e-18
2.140061e-16
4.708789e-15
6.883635e-14
7.593314e-13
6.686086e-12
4.854307e-11
2.961618e-10
1.535597e-09
6.817419e-09
2.608323e-08
8.660816e-08
2.516228e-07
6.455144e-07
1.476658e-06
3.042458e-06
5.701830e-06
9.810690e-06
1.563217e-05
2.324701e-05
3.249379e-05
4.296046e-05
5.403230e-05
6.498316e-05
7.508545e-05
8.371204e-05
9.040971e-05
9.493426e-05
9.724790e-05
9.748704e-05
9.591217e-05
9.285199e-05
8.865146e-05
8.363070e-05
7.805767e-05
7.213462e-05
6.599626e-05
5.971652e-05
5.332066e-05
4.680009e-05
4.012789e-05
3.327370e-05
2.621671e-05
1.895608e-05
1.151806e-05
3.959550e-06
-3.631815e-06
-1.114058e-05
-1.842856e-05
-2.534155e-05
-3.171703e-05
-3.739270e-05
-4.221575e-05
-4.605271e-05
-4.879936e-05
-5.039000e-05
-5.080493e-05
-5.007488e-05
-4.828152e-05
-4.555349e-05
-4.205804e-05
-3.798915e-05
-3.355337e-05
-2.895520e-05
-2.438343e-05
-2.000014e-05
-1.593310e-05
-1.227220e-05
0.000000e+00
0.000000e+00
5.370987e-18
2.620360e-16
5.805879e-15
8.677485e-14
9.753573e-13
8.693821e-12
6.331040e-11
3.832664e-10
1.950997e-09
8.430566e-09
3.122105e-08
1.001109e-07
2.809901e-07
6.981582e-07
1.552809e-06
3.124837e-06
5.746314e-06
9.743307e-06
1.535569e-05
2.265641e-05
3.149621e-05
4.149394e-05
5.207836e-05
6.257093e-05
7.228765e-05
8.063508e-05
8.718083e-05
9.168845e-05
9.411660e-05
9.458971e-05
9.335114e-05
9.071023e-05
8.699294e-05
8.250227e-05
7.749182e-05
7.215234e-05
6.660959e-05
6.093051e-05
5.513472e-05
4.920886e-05
4.312158e-05
3.683797e-05
3.033233e-05
2.359844e-05
1.665684e-05
9.558792e-06
2.386885e-06
-4.747316e-06
-1.170814e-05
-1.834252e-05
-2.448813e-05
-2.998244e-05
-3.467246e-05
-3.842489e-05
-4.113595e-05
-4.274028e-05
-4.321780e-05
-4.259752e-05
-4.095759e-05
-3.842105e-05
-3.514763e-05
-3.132227e-05
-2.714168e-05
-2.280040e-05
-1.847806e-05
-1.432891e-05
-1.047476e-05
-7.001576e-06
0.000000e+00
0.000000e+00
6.601423e-18
3.131762e-16
7.072978e-15
1.084898e-13
1.240331e-12
1.113430e-11
8.068585e-11
4.803814e-10
2.382447e-09
9.970660e-09
3.567228e-08
1.105484e-07
3.006537e-07
7.267096e-07
1.579668e-06
3.121312e-06
5.659962e-06
9.498116e-06
1.485992e-05
2.181708e-05
3.023678e-05
3.977035e-05
4.988939e-05
5.996074e-05
6.934064e-05
7.746502e-05
8.391716e-05
8.846253e-05
9.104997e-05
9.178572e-05
9.089031e-05
8.864910e-05
8.536564e-05
8.132392e-05
7.676279e-05
7.186276e-05
6.674351e-05
6.146961e-05
5.606136e-05
5.050839e-05
4.478385e-05
3.885776e-05
3.270873e-05
2.633326e-05
1.975237e-05
1.301533e-05
6.200648e-06
-5.857127e-07
-7.214395e-06
-1.353872e-05
-1.940237e-05
-2.464831e-05
-2.912860e-05
-3.271447e-05
-3.530618e-05
-3.684156e-05
-3.730246e-05
-3.671811e-05
-3.516474e-05
-3.276109e-05
-2.966034e-05
-2.603897e-05
-2.208391e-05
-1.797945e-05
-1.389520e-05
-9.976447e-06
-6.337627e-06
-3.059276e-06
0.000000e+00
0.000000e+00
5.588335e-18
3.716851e-16
8.562656e-15
1.341947e-13
1.553753e-12
1.393485e-11
9.955280e-11
5.782032e-10
2.778916e-09
1.123808e-08
3.886292e-08
1.167175e-07
3.089004e-07
7.300458e-07
1.559017e-06
3.039374e-06
5.457759e-06
9.096945e-06
1.417004e-05
2.075216e-05
2.873079e-05
3.779265e-05
4.745398e-05
5.712760e-05
6.620913e-05
7.416148e-05
8.057951e-05
8.522502e-05
8.803038e-05
8.907643e-05
8.855375e-05
8.671719e-05
8.384248e-05
8.019067e-05
7.598369e-05
7.139156e-05
6.652969e-05
6.146410e-05
5.622152e-05
5.080199e-05
4.519174e-05
3.937511e-05
3.334453e-05
2.710822e-05
2.069551e-05
1.415982e-05
7.579441e-06
1.056239e-06
-5.287630e-06
-1.131480e-05
-1.687945e-05
-2.183551e-05
-2.604585e-05
-2.939199e-05
-3.178345e-05
-3.316593e-05
-3.352716e-05
-3.289984e-05
-3.136077e-05
-2.902634e-05
-2.604437e-05
-2.258348e-05
-1.882088e-05
-1.493006e-05
-1.106971e-05
-7.374875e-06
-3.951155e-06
-8.721237e-07
0.000000e+00
0.000000e+00
5.678821e-18
4.257505e-16
1.022827e-14
1.635209e-13
1.902274e-12
1.687815e-11
1.178379e-10
6.636724e-10
3.082309e-09
1.204610e-08
4.036646e-08
1.179871e-07
3.054153e-07
7.094443e-07
1.495600e-06
2.889027e-06
5.155785e-06
8.561207e-06
1.331053e-05
1.948595e-05
2.699919e-05
3.557619e-05
4.478122e-05
5.407546e-05
6.289489e-05
7.072841e-05
7.717943e-05
8.200097e-05
8.510219e-05
8.653078e-05
8.643922e-05
8.504412e-05
8.258666e-05
7.929982e-05
7.538549e-05
7.100228e-05
6.626270e-05
6.123765e-05
5.596547e-05
5.046309e-05
4.473728e-05
3.879461e-05
3.264940e-05
2.632952e-05
1.988002e-05
1.336501e-05
6.867825e-06
4.898257e-07
-5.652339e-06
-1.143092e-05
-1.671278e-05
-2.136653e-05
-2.527073e-05
-2.832264e-05
-3.044671e-05
-3.160185e-05
-3.178658e-05
-3.104116e-05
-2.944635e-05
-2.711855e-05
-2.420188e-05
-2.085791e-05
-1.725422e-05
-1.355303e-05
-9.901166e-06
-6.422197e-06
-3.211467e-06
-3.341315e-07
0.000000e+00
0.000000e+00
7.463140e-18
4.841028e-16
1.202090e-14
1.947947e-13
2.253415e-12
1.958988e-11
1.327355e-10
7.222735e-10
3.240065e-09
1.226559e-08
3.999865e-08
1.143754e-07
2.911223e-07
6.679463e-07
1.396079e-06
2.681898e-06
4.771331e-06
7.913607e-06
1.230831e-05
1.804779e-05
2.507175e-05
3.314959e-05
4.189781e-05
5.082954e-05
5.942333e-05
6.719429e-05
7.375225e-05
7.883701e-05
8.232804e-05
8.423197e-05
8.465469e-05
8.376633e-05
8.176636e-05
7.885423e-05
7.520854e-05
7.097557e-05
6.626622e-05
6.115946e-05
5.570981e-05
4.995655e-05
4.393282e-05
3.767339e-05