# vtk DataFile Version 3.0
Resultado Projeto 3
ASCII
DATASET STRUCTURED_GRID
DIMENSIONS 140 60 1 
POINTS 8400 double
0.000000e+00 0.000000e+00 0.000000e+00
2.517986e-02 0.000000e+00 0.000000e+00
5.035971e-02 0.000000e+00 0.000000e+00
7.553957e-02 0.000000e+00 0.000000e+00
1.007194e-01 0.000000e+00 0.000000e+00
1.258993e-01 0.000000e+00 0.000000e+00
1.510791e-01 0.000000e+00 0.000000e+00
1.762590e-01 0.000000e+00 0.000000e+00
2.014388e-01 0.000000e+00 0.000000e+00
2.266187e-01 0.000000e+00 0.000000e+00
2.517986e-01 0.000000e+00 0.000000e+00
2.769784e-01 0.000000e+00 0.000000e+00
3.021583e-01 0.000000e+00 0.000000e+00
3.273381e-01 0.000000e+00 0.000000e+00
3.525180e-01 0.000000e+00 0.000000e+00
3.776978e-01 0.000000e+00 0.000000e+00
4.028777e-01 0.000000e+00 0.000000e+00
4.280576e-01 0.000000e+00 0.000000e+00
4.532374e-01 0.000000e+00 0.000000e+00
4.784173e-01 0.000000e+00 0.000000e+00
5.035971e-01 0.000000e+00 0.000000e+00
5.287770e-01 0.000000e+00 0.000000e+00
5.539568e-01 0.000000e+00 0.000000e+00
5.791367e-01 0.000000e+00 0.000000e+00
6.043165e-01 0.000000e+00 0.000000e+00
6.294964e-01 0.000000e+00 0.000000e+00
6.546763e-01 0.000000e+00 0.000000e+00
6.798561e-01 0.000000e+00 0.000000e+00
7.050360e-01 0.000000e+00 0.000000e+00
7.302158e-01 0.000000e+00 0.000000e+00
7.553957e-01 0.000000e+00 0.000000e+00
7.805755e-01 0.000000e+00 0.000000e+00
8.057554e-01 0.000000e+00 0.000000e+00
8.309353e-01 0.000000e+00 0.000000e+00
8.561151e-01 0.000000e+00 0.000000e+00
8.812950e-01 0.000000e+00 0.000000e+00
9.064748e-01 0.000000e+00 0.000000e+00
9.316547e-01 0.000000e+00 0.000000e+00
9.568345e-01 0.000000e+00 0.000000e+00
9.820144e-01 0.000000e+00 0.000000e+00
1.007194e+00 0.000000e+00 0.000000e+00
1.032374e+00 0.000000e+00 0.000000e+00
1.057554e+00 0.000000e+00 0.000000e+00
1.082734e+00 0.000000e+00 0.000000e+00
1.107914e+00 0.000000e+00 0.000000e+00
1.133094e+00 0.000000e+00 0.000000e+00
1.158273e+00 0.000000e+00 0.000000e+00
1.183453e+00 0.000000e+00 0.000000e+00
1.208633e+00 0.000000e+00 0.000000e+00
1.233813e+00 0.000000e+00 0.000000e+00
1.258993e+00 0.000000e+00 0.000000e+00
1.284173e+00 0.000000e+00 0.000000e+00
1.309353e+00 0.000000e+00 0.000000e+00
1.334532e+00 0.000000e+00 0.000000e+00
1.359712e+00 0.000000e+00 0.000000e+00
1.384892e+00 0.000000e+00 0.000000e+00
1.410072e+00 0.000000e+00 0.000000e+00
1.435252e+00 0.000000e+00 0.000000e+00
1.460432e+00 0.000000e+00 0.000000e+00
1.485612e+00 0.000000e+00 0.000000e+00
1.510791e+00 0.000000e+00 0.000000e+00
1.535971e+00 0.000000e+00 0.000000e+00
1.561151e+00 0.000000e+00 0.000000e+00
1.586331e+00 0.000000e+00 0.000000e+00
1.611511e+00 0.000000e+00 0.000000e+00
1.636691e+00 0.000000e+00 0.000000e+00
1.661871e+00 0.000000e+00 0.000000e+00
1.687050e+00 0.000000e+00 0.000000e+00
1.712230e+00 0.000000e+00 0.000000e+00
1.737410e+00 0.000000e+00 0.000000e+00
1.762590e+00 0.000000e+00 0.000000e+00
1.787770e+00 0.000000e+00 0.000000e+00
1.812950e+00 0.000000e+00 0.000000e+00
1.838129e+00 0.000000e+00 0.000000e+00
1.863309e+00 0.000000e+00 0.000000e+00
1.888489e+00 0.000000e+00 0.000000e+00
1.913669e+00 0.000000e+00 0.000000e+00
1.938849e+00 0.000000e+00 0.000000e+00
1.964029e+00 0.000000e+00 0.000000e+00
1.989209e+00 0.000000e+00 0.000000e+00
2.014388e+00 0.000000e+00 0.000000e+00
2.039568e+00 0.000000e+00 0.000000e+00
2.064748e+00 0.000000e+00 0.000000e+00
2.089928e+00 0.000000e+00 0.000000e+00
2.115108e+00 0.000000e+00 0.000000e+00
2.140288e+00 0.000000e+00 0.000000e+00
2.165468e+00 0.000000e+00 0.000000e+00
2.190647e+00 0.000000e+00 0.000000e+00
2.215827e+00 0.000000e+00 0.000000e+00
2.241007e+00 0.000000e+00 0.000000e+00
2.266187e+00 0.000000e+00 0.000000e+00
2.291367e+00 0.000000e+00 0.000000e+00
2.316547e+00 0.000000e+00 0.000000e+00
2.341727e+00 0.000000e+00 0.000000e+00
2.366906e+00 0.000000e+00 0.000000e+00
2.392086e+00 0.000000e+00 0.000000e+00
2.417266e+00 0.000000e+00 0.000000e+00
2.442446e+00 0.000000e+00 0.000000e+00
2.467626e+00 0.000000e+00 0.000000e+00
2.492806e+00 0.000000e+00 0.000000e+00
2.517986e+00 0.000000e+00 0.000000e+00
2.543165e+00 0.000000e+00 0.000000e+00
2.568345e+00 0.000000e+00 0.000000e+00
2.593525e+00 0.000000e+00 0.000000e+00
2.618705e+00 0.000000e+00 0.000000e+00
2.643885e+00 0.000000e+00 0.000000e+00
2.669065e+00 0.000000e+00 0.000000e+00
2.694245e+00 0.000000e+00 0.000000e+00
2.719424e+00 0.000000e+00 0.000000e+00
2.744604e+00 0.000000e+00 0.000000e+00
2.769784e+00 0.000000e+00 0.000000e+00
2.794964e+00 0.000000e+00 0.000000e+00
2.820144e+00 0.000000e+00 0.000000e+00
2.845324e+00 0.000000e+00 0.000000e+00
2.870504e+00 0.000000e+00 0.000000e+00
2.895683e+00 0.000000e+00 0.000000e+00
2.920863e+00 0.000000e+00 0.000000e+00
2.946043e+00 0.000000e+00 0.000000e+00
2.971223e+00 0.000000e+00 0.000000e+00
2.996403e+00 0.000000e+00 0.000000e+00
3.021583e+00 0.000000e+00 0.000000e+00
3.046763e+00 0.000000e+00 0.000000e+00
3.071942e+00 0.000000e+00 0.000000e+00
3.097122e+00 0.000000e+00 0.000000e+00
3.122302e+00 0.000000e+00 0.000000e+00
3.147482e+00 0.000000e+00 0.000000e+00
3.172662e+00 0.000000e+00 0.000000e+00
3.197842e+00 0.000000e+00 0.000000e+00
3.223022e+00 0.000000e+00 0.000000e+00
3.248201e+00 0.000000e+00 0.000000e+00
3.273381e+00 0.000000e+00 0.000000e+00
3.298561e+00 0.000000e+00 0.000000e+00
3.323741e+00 0.000000e+00 0.000000e+00
3.348921e+00 0.000000e+00 0.000000e+00
3.374101e+00 0.000000e+00 0.000000e+00
3.399281e+00 0.000000e+00 0.000000e+00
3.424460e+00 0.000000e+00 0.000000e+00
3.449640e+00 0.000000e+00 0.000000e+00
3.474820e+00 0.000000e+00 0.000000e+00
3.500000e+00 0.000000e+00 0.000000e+00
0.000000e+00 1.694915e-02 0.000000e+00
2.517986e-02 1.694915e-02 0.000000e+00
5.035971e-02 1.694915e-02 0.000000e+00
7.553957e-02 1.694915e-02 0.000000e+00
1.007194e-01 1.694915e-02 0.000000e+00
1.258993e-01 1.694915e-02 0.000000e+00
1.510791e-01 1.694915e-02 0.000000e+00
1.762590e-01 1.694915e-02 0.000000e+00
2.014388e-01 1.694915e-02 0.000000e+00
2.266187e-01 1.694915e-02 0.000000e+00
2.517986e-01 1.694915e-02 0.000000e+00
2.769784e-01 1.694915e-02 0.000000e+00
3.021583e-01 1.694915e-02 0.000000e+00
3.273381e-01 1.694915e-02 0.000000e+00
3.525180e-01 1.694915e-02 0.000000e+00
3.776978e-01 1.694915e-02 0.000000e+00
4.028777e-01 1.694915e-02 0.000000e+00
4.280576e-01 1.694915e-02 0.000000e+00
4.532374e-01 1.694915e-02 0.000000e+00
4.784173e-01 1.694915e-02 0.000000e+00
5.035971e-01 1.694915e-02 0.000000e+00
5.287770e-01 1.694915e-02 0.000000e+00
5.539568e-01 1.694915e-02 0.000000e+00
5.791367e-01 1.694915e-02 0.000000e+00
6.043165e-01 1.694915e-02 0.000000e+00
6.294964e-01 1.694915e-02 0.000000e+00
6.546763e-01 1.694915e-02 0.000000e+00
6.798561e-01 1.694915e-02 0.000000e+00
7.050360e-01 1.694915e-02 0.000000e+00
7.302158e-01 1.694915e-02 0.000000e+00
7.553957e-01 1.694915e-02 0.000000e+00
7.805755e-01 1.694915e-02 0.000000e+00
8.057554e-01 1.694915e-02 0.000000e+00
8.309353e-01 1.694915e-02 0.000000e+00
8.561151e-01 1.694915e-02 0.000000e+00
8.812950e-01 1.694915e-02 0.000000e+00
9.064748e-01 1.694915e-02 0.000000e+00
9.316547e-01 1.694915e-02 0.000000e+00
9.568345e-01 1.694915e-02 0.000000e+00
9.820144e-01 1.694915e-02 0.000000e+00
1.007194e+00 1.694915e-02 0.000000e+00
1.032374e+00 1.694915e-02 0.000000e+00
1.057554e+00 1.694915e-02 0.000000e+00
1.082734e+00 1.694915e-02 0.000000e+00
1.107914e+00 1.694915e-02 0.000000e+00
1.133094e+00 1.694915e-02 0.000000e+00
1.158273e+00 1.694915e-02 0.000000e+00
1.183453e+00 1.694915e-02 0.000000e+00
1.208633e+00 1.694915e-02 0.000000e+00
1.233813e+00 1.694915e-02 0.000000e+00
1.258993e+00 1.694915e-02 0.000000e+00
1.284173e+00 1.694915e-02 0.000000e+00
1.309353e+00 1.694915e-02 0.000000e+00
1.334532e+00 1.694915e-02 0.000000e+00
1.359712e+00 1.694915e-02 0.000000e+00
1.384892e+00 1.694915e-02 0.000000e+00
1.410072e+00 1.694915e-02 0.000000e+00
1.435252e+00 1.694915e-02 0.000000e+00
1.460432e+00 1.694915e-02 0.000000e+00
1.485612e+00 1.694915e-02 0.000000e+00
1.510791e+00 1.694915e-02 0.000000e+00
1.535971e+00 1.694915e-02 0.000000e+00
1.561151e+00 1.694915e-02 0.000000e+00
1.586331e+00 1.694915e-02 0.000000e+00
1.611511e+00 1.694915e-02 0.000000e+00
1.636691e+00 1.694915e-02 0.000000e+00
1.661871e+00 1.694915e-02 0.000000e+00
1.687050e+00 1.694915e-02 0.000000e+00
1.712230e+00 1.694915e-02 0.000000e+00
1.737410e+00 1.694915e-02 0.000000e+00
1.762590e+00 1.694915e-02 0.000000e+00
1.787770e+00 1.694915e-02 0.000000e+00
1.812950e+00 1.694915e-02 0.000000e+00
1.838129e+00 1.694915e-02 0.000000e+00
1.863309e+00 1.694915e-02 0.000000e+00
1.888489e+00 1.694915e-02 0.000000e+00
1.913669e+00 1.694915e-02 0.000000e+00
1.938849e+00 1.694915e-02 0.000000e+00
1.964029e+00 1.694915e-02 0.000000e+00
1.989209e+00 1.694915e-02 0.000000e+00
2.014388e+00 1.694915e-02 0.000000e+00
2.039568e+00 1.694915e-02 0.000000e+00
2.064748e+00 1.694915e-02 0.000000e+00
2.089928e+00 1.694915e-02 0.000000e+00
2.115108e+00 1.694915e-02 0.000000e+00
2.140288e+00 1.694915e-02 0.000000e+00
2.165468e+00 1.694915e-02 0.000000e+00
2.190647e+00 1.694915e-02 0.000000e+00
2.215827e+00 1.694915e-02 0.000000e+00
2.241007e+00 1.694915e-02 0.000000e+00
2.266187e+00 1.694915e-02 0.000000e+00
2.291367e+00 1.694915e-02 0.000000e+00
2.316547e+00 1.694915e-02 0.000000e+00
2.341727e+00 1.694915e-02 0.000000e+00
2.366906e+00 1.694915e-02 0.000000e+00
2.392086e+00 1.694915e-02 0.000000e+00
2.417266e+00 1.694915e-02 0.000000e+00
2.442446e+00 1.694915e-02 0.000000e+00
2.467626e+00 1.694915e-02 0.000000e+00
2.492806e+00 1.694915e-02 0.000000e+00
2.517986e+00 1.694915e-02 0.000000e+00
2.543165e+00 1.694915e-02 0.000000e+00
2.568345e+00 1.694915e-02 0.000000e+00
2.593525e+00 1.694915e-02 0.000000e+00
2.618705e+00 1.694915e-02 0.000000e+00
2.643885e+00 1.694915e-02 0.000000e+00
2.669065e+00 1.694915e-02 0.000000e+00
2.694245e+00 1.694915e-02 0.000000e+00
2.719424e+00 1.694915e-02 0.000000e+00
2.744604e+00 1.694915e-02 0.000000e+00
2.769784e+00 1.694915e-02 0.000000e+00
2.794964e+00 1.694915e-02 0.000000e+00
2.820144e+00 1.694915e-02 0.000000e+00
[...]
POINT_DATA 8400
SCALARS RES_Cont double
LOOKUP_TABLE default
0.000000e+00
0.000000e+00
0.000000e+00
0.000000e+00
0.000000e+00
0.000000e+00
0.000000e+00
0.000000e+00
0.000000e+00
0.000000e+00
0.000000e+00
0.000000e+00
0.000000e+00
0.000000e+00
0.000000e+00
0.000000e+00
0.000000e+00
0.000000e+00
0.000000e+00
0.000000e+00
0.000000e+00
0.000000e+00
0.000000e+00
0.000000e+00
0.000000e+00
0.000000e+00
0.000000e+00
0.000000e+00
0.000000e+00
0.000000e+00
0.000000e+00
0.000000e+00
0.000000e+00
0.000000e+00
0.000000e+00
0.000000e+00
0.000000e+00
0.000000e+00
0.000000e+00
0.000000e+00
0.000000e+00
0.000000e+00
0.000000e+00
0.000000e+00
0.000000e+00
0.000000e+00
0.000000e+00
0.000000e+00
0.000000e+00
0.000000e+00
0.000000e+00
0.000000e+00
0.000000e+00
0.000000e+00
0.000000e+00
0.000000e+00
0.000000e+00
0.000000e+00
0.000000e+00
0.000000e+00
0.000000e+00
0.000000e+00
0.000000e+00
0.000000e+00
0.000000e+00
0.000000e+00
0.000000e+00
0.000000e+00
0.000000e+00
0.000000e+00
0.000000e+00
0.000000e+00
0.000000e+00
0.000000e+00
0.000000e+00
0.000000e+00
0.000000e+00
0.000000e+00
0.000000e+00
0.000000e+00
0.000000e+00
0.000000e+00
0.000000e+00
0.000000e+00
0.000000e+00
0.000000e+00
0.000000e+00
0.000000e+00
0.000000e+00
0.000000e+00
0.000000e+00
0.000000e+00
0.000000e+00
0.000000e+00
0.000000e+00
0.000000e+00
0.000000e+00
0.000000e+00
0.000000e+00
0.000000e+00
0.000000e+00
0.000000e+00
0.000000e+00
0.000000e+00
0.000000e+00
0.000000e+00
0.000000e+00
0.000000e+00
0.000000e+00
0.000000e+00
0.000000e+00
0.000000e+00
0.000000e+00
0.000000e+00
0.000000e+00
0.000000e+00
0.000000e+00
0.000000e+00
0.000000e+00
0.000000e+00
0.000000e+00
0.000000e+00
0.000000e+00
0.000000e+00
0.000000e+00
0.000000e+00
0.000000e+00
0.000000e+00
0.000000e+00
0.000000e+00
0.000000e+00
0.000000e+00
0.000000e+00
0.000000e+00
0.000000e+00
0.000000e+00
0.000000e+00
0.000000e+00
0.000000e+00
0.000000e+00
0.000000e+00
-0.000000e+00
-0.000000e+00
-0.000000e+00
-0.000000e+00
-0.000000e+00
-0.000000e+00
3.951571e-19
-2.766100e-18
2.082467e-18
2.280046e-18
-4.179766e-18
7.142492e-19
2.416391e-18
2.578590e-19
1.793992e-18
-1.484016e-18
-2.249020e-18
-5.253776e-19
3.490008e-18
-1.665693e-18
4.132212e-18
-7.431019e-19
1.258638e-18
-3.120889e-18
3.624877e-19
3.350720e-18
-4.838267e-18
-3.001694e-18
-6.232364e-19
4.141967e-18
7.886207e-18
1.385713e-18
-6.964297e-18
-1.987902e-17
-3.653374e-17
-1.500249e-16
-7.011456e-16
-2.975943e-15
-1.082072e-14
-3.289825e-14
-7.549996e-14
-7.388256e-14
4.353771e-13
3.472185e-12
1.583064e-11
5.581400e-11
1.611786e-10
3.778767e-10
6.567579e-10
4.805448e-10
-2.074183e-09
-1.203897e-08
-3.933836e-08
-9.746004e-08
-1.913250e-07
-2.824063e-07
-2.224194e-07
3.289818e-07
1.930518e-06
5.186101e-06
1.022032e-05
1.582726e-05
1.866603e-05
1.306178e-05
-8.234166e-06
-5.247798e-05
-1.242396e-04
-2.210264e-04
-3.246000e-04
-3.893921e-04
-3.399645e-04
-1.031618e-04
3.139027e-04
7.972163e-04
1.214833e-03
1.502734e-03
1.665451e-03
1.736615e-03
1.749203e-03
1.725705e-03
1.679504e-03
1.618767e-03
1.549136e-03
1.474896e-03
1.399311e-03
1.324719e-03
1.252667e-03
1.184080e-03
1.119455e-03
1.059016e-03
1.002826e-03
9.508660e-04
9.030821e-04
8.594113e-04
8.197954e-04
7.841874e-04
7.525524e-04
7.248666e-04
7.011144e-04
6.812842e-04
6.653643e-04
6.533411e-04
6.452007e-04
6.409362e-04
6.405604e-04
6.441254e-04
6.517477e-04
6.636418e-04
6.801602e-04
7.018425e-04
7.294675e-04
7.640973e-04
8.070863e-04
8.600050e-04
9.244068e-04
1.001360e-03
1.090696e-03
1.190008e-03
1.293601e-03
1.391710e-03
1.470479e-03
1.513187e-03
1.503055e-03
1.427601e-03
1.283871e-03
1.083132e-03
8.530061e-04
6.350065e-04
4.766290e-04
4.195197e-04
4.875010e-04
6.786081e-04
9.632554e-04
1.287963e-03
1.583104e-03
1.774292e-03
1.798392e-03
1.624264e-03
0.000000e+00
0.000000e+00
-0.000000e+00
-0.000000e+00
-0.000000e+00
-0.000000e+00
-0.000000e+00
3.951571e-19
-5.927357e-19
1.778207e-18
7.903142e-19
-3.769777e-18
-1.094574e-18
5.289172e-18
1.580628e-18
-2.141795e-18
-1.059195e-18
-1.647168e-18
3.473138e-18
-1.541714e-18
-3.739177e-18
1.142524e-19
-1.188830e-18
-2.499037e-19
-9.135000e-19
1.248203e-18
-3.108179e-19
-1.722657e-18
-1.680982e-18
-3.484509e-18
-3.295901e-18
-7.596833e-18
8.658188e-19
-1.213587e-18
-7.911144e-19
-1.669873e-17
-5.724276e-17
-2.632648e-16
-1.068836e-15
-3.596276e-15
-9.517862e-15
-1.384517e-14
3.781833e-14
4.275141e-13
2.248006e-12
8.897084e-12
2.874131e-11
7.615903e-11
1.560713e-10
1.849434e-10
-2.567266e-10
-2.489055e-09
-9.617150e-09
-2.699828e-08
-5.968813e-08
-1.012804e-07
-1.066674e-07
5.302425e-08
6.311510e-07
1.971698e-06
4.285392e-06
7.164286e-06
8.968665e-06
6.483324e-06
-4.813983e-06
-2.987953e-05
-7.255585e-05
-1.323142e-04
-1.964289e-04
-2.265815e-04
-1.545634e-04
8.194453e-05
4.490231e-04
7.921306e-04
9.633027e-04
9.377658e-04
7.917139e-04
6.213311e-04
4.947243e-04
4.432494e-04
4.702255e-04
5.623399e-04
6.987032e-04
8.570519e-04
1.017704e-03
1.165754e-03
1.291811e-03
1.391614e-03
1.464941e-03
1.514255e-03
1.543432e-03
1.556790e-03
1.558465e-03
1.552089e-03
1.540692e-03
1.526725e-03
1.512146e-03
1.498525e-03
1.487132e-03
1.479014e-03
1.475051e-03
1.475983e-03
1.482427e-03
1.494883e-03
1.513721e-03
1.539175e-03
1.571319e-03
1.610049e-03
1.655048e-03
1.705760e-03
1.761356e-03
1.820718e-03
1.882434e-03
1.944826e-03
2.006024e-03
2.064091e-03
2.117185e-03
2.163684e-03
2.202193e-03
2.231360e-03
2.249566e-03
2.254718e-03
2.244464e-03
2.216963e-03
2.172002e-03
2.111936e-03
2.041979e-03
1.969831e-03
1.904933e-03
1.857560e-03
1.837414e-03
1.851264e-03
1.899931e-03
1.976216e-03
2.065686e-03
2.150623e-03
2.215164e-03
2.248799e-03
2.246694e-03
2.207736e-03
0.000000e+00
0.000000e+00
-0.000000e+00
-0.000000e+00
-0.000000e+00
-0.000000e+00
3.951571e-19
-7.903142e-19
3.860674e-18
3.465517e-18
-2.281951e-19
-2.447008e-18
2.203981e-18
1.018509e-18
-3.236369e-18
-2.306852e-18
-5.389186e-18
-2.049945e-18
1.842022e-18
-2.068195e-18
-3.180893e-18
2.275350e-18
1.190351e-18
1.120886e-18
3.851217e-18
2.707785e-18
-3.529972e-19
3.288846e-20
-5.641218e-18
-2.359546e-18
-5.847365e-18
8.143194e-19
3.449130e-18
8.031909e-18
-7.759138e-19
-1.411886e-17
-9.396995e-17
-4.072759e-16
-1.216511e-15
-2.201218e-15
3.356569e-15
5.726393e-14
3.453035e-13
1.529026e-12
5.511880e-12
1.643713e-11
3.906310e-11
6.230557e-11
-7.397331e-12
-5.354363e-10
-2.553185e-09
-8.262352e-09
-2.084451e-08
-4.111367e-08
-5.615037e-08
-1.436334e-08
2.106980e-07
8.386693e-07
2.106011e-06
3.984787e-06
5.663490e-06
4.996072e-06
-1.661159e-06
-1.887005e-05
-5.076332e-05
-9.814868e-05
-1.521452e-04
-1.803684e-04
-1.167530e-04
1.105530e-04
4.813387e-04
8.391573e-04
1.021515e-03
9.885867e-04
8.049496e-04
5.590032e-04
3.162431e-04
1.115436e-04
-4.287458e-05
-1.469068e-04
-2.045785e-04
-2.198075e-04
-1.951792e-04
-1.324854e-04
-3.391271e-05
9.691775e-05
2.545015e-04
4.316884e-04
6.204375e-04
8.127853e-04
1.001724e-03
1.181790e-03
1.349304e-03
1.502311e-03
1.640329e-03
1.764014e-03
1.874822e-03
1.974705e-03
2.065869e-03
2.150581e-03
2.231021e-03
2.309170e-03
2.386712e-03
2.464966e-03
2.544808e-03
2.626618e-03
2.710206e-03
2.794754e-03
2.878753e-03
2.959964e-03
3.035415e-03
3.101493e-03
3.154152e-03
3.189305e-03
3.203393e-03
3.194089e-03
3.161002e-03
3.106177e-03
3.034230e-03
2.952067e-03
2.868339e-03
2.792833e-03
2.735920e-03
2.707877e-03
2.717686e-03
2.771011e-03
2.867421e-03
2.997481e-03
3.140836e-03
3.266816e-03
3.339356e-03
3.327281e-03
3.218076e-03
3.028671e-03
2.805194e-03
2.609388e-03
2.498554e-03
2.508967e-03
2.647250e-03
2.887739e-03
0.000000e+00
0.000000e+00
-0.000000e+00
-0.000000e+00
-0.000000e+00
-0.000000e+00
-1.185471e-18
-1.778207e-18
5.018387e-19
-7.903142e-19
-1.702142e-18
-2.492456e-18
-4.099891e-19
-2.369990e-18
-3.052670e-18
3.484159e-18
3.250249e-18
9.608108e-19
5.714947e-19
3.151698e-18
4.299734e-18
-1.328193e-18
-2.784376e-18
-2.086896e-19
-3.317837e-18
-4.228131e-18
4.920217e-19
-3.325474e-18
-6.630422e-19
-1.425626e-18
-2.843078e-18
-1.443639e-18
-4.387892e-18
-1.037475e-17
-1.091275e-17
-2.831520e-17
-1.271186e-16
-3.222932e-16
1.591179e-17
6.094517e-15
4.475618e-14
2.273610e-13
9.300125e-13
3.165828e-12
8.830006e-12
1.844386e-11
1.716892e-11
-7.644136e-11
-5.483937e-10
-2.157448e-09
-6.406199e-09
-1.505760e-08
-2.671244e-08
-2.631214e-08
3.659967e-08
2.763508e-07
8.743506e-07
1.979544e-06
3.406384e-06
4.122032e-06
1.754967e-06
-7.481212e-06
-2.810933e-05
-6.343375e-05
-1.107713e-04
-1.495513e-04
-1.251755e-04
4.127369e-05
3.645325e-04
7.123232e-04
9.157044e-04
9.220958e-04
7.902094e-04
6.043272e-04
4.217814e-04
2.657127e-04
1.376311e-04
3.114157e-05
-6.031412e-05
-1.410303e-04
-2.130885e-04
-2.770028e-04
-3.322728e-04
-3.777455e-04
-4.118618e-04
-4.328680e-04
-4.390382e-04
-4.289092e-04
-4.015066e-04
-3.565208e-04
-2.943963e-04
-2.163226e-04
-1.241407e-04
-2.019779e-05
9.281563e-05
2.120216e-04
3.344866e-04
4.573202e-04
5.777354e-04
6.930698e-04
8.007743e-04
8.983814e-04
9.834715e-04
1.053658e-03
1.106615e-03
1.140157e-03
1.152390e-03
1.141929e-03
1.108164e-03
1.051549e-03
9.738787e-04
8.784745e-04
7.702377e-04
6.554980e-04
5.416326e-04
4.364757e-04
3.476150e-04
2.817287e-04
2.441301e-04
2.386072e-04
2.674975e-04
3.317634e-04
4.307326e-04
5.612109e-04
7.158890e-04
8.813387e-04
1.036405e-03
1.152402e-03
1.196935e-03
1.142730e-03
9.803814e-04
7.297386e-04
4.416409e-04
1.851219e-04
2.506617e-05
2.636901e-06
1.271020e-04
3.773603e-04
7.060341e-04
1.042502e-03
0.000000e+00
0.000000e+00
-0.000000e+00
-0.000000e+00
-0.000000e+00
-0.000000e+00
-5.927357e-19
9.878928e-19
-4.362513e-18
-4.255831e-18
-1.732758e-18
-1.580628e-18
-8.357627e-19
-2.567569e-18
1.020414e-18
2.245619e-18
-1.634516e-18
5.327126e-18
-2.904785e-18
1.447926e-18
1.485018e-18
3.264786e-18
2.063970e-19
2.546141e-18
-6.303309e-20
4.072528e-18
9.438416e-19
3.515712e-18
2.228687e-18
1.363450e-18
-5.036235e-19
6.955386e-19
-9.646929e-19
-5.915200e-18
-1.905614e-17
-4.140415e-17
-3.300523e-17
5.096099e-16
4.842981e-15
2.845312e-14
1.322447e-13
5.121359e-13
1.653267e-12
4.237549e-12
7.013863e-12
-3.892902e-12
-9.159824e-11
-4.624530e-10
-1.634489e-09
-4.544498e-09
-9.928768e-09
-1.514239e-08
-5.082391e-09
6.559345e-08
2.928466e-07
8.135764e-07
1.691897e-06
2.616879e-06
2.426533e-06
-1.311614e-06
-1.227822e-05
-3.455364e-05
-6.972923e-05
-1.091295e-04
-1.170106e-04
-2.227579e-05
2.263749e-04
5.458870e-04
7.652846e-04
8.014645e-04
6.962507e-04
5.352117e-04
3.833827e-04
2.691924e-04
1.940597e-04
1.468161e-04
1.138573e-04
8.417563e-05
5.096134e-05
1.129021e-05
-3.502055e-05
-8.665352e-05
-1.417444e-04
-1.984520e-04
-2.552116e-04
-3.107913e-04
-3.642520e-04
-4.148766e-04
-4.621047e-04
-5.054886e-04
-5.446792e-04
-5.794385e-04
-6.096711e-04
-6.354630e-04
-6.571160e-04
-6.751707e-04
-6.904127e-04
-7.038587e-04
-7.167222e-04
-7.303548e-04
-7.461630e-04
-7.655014e-04
-7.895449e-04
-8.191510e-04
-8.547260e-04
-8.961147e-04
-9.425332e-04
-9.925649e-04
-1.044230e-03
-1.095127e-03
-1.142640e-03
-1.184173e-03
-1.217386e-03
-1.240395e-03
-1.251893e-03
-1.251196e-03
-1.238180e-03
-1.213166e-03
-1.176771e-03
-1.129815e-03
-1.073392e-03
-1.009170e-03
-9.399565e-04
-8.703791e-04
-8.073957e-04
-7.602225e-04
-7.392408e-04
-7.536619e-04
-8.082240e-04
-8.999698e-04
-1.016732e-03
-1.138600e-03
-1.242149e-03
-1.305721e-03
-1.314069e-03
-1.261735e-03
-1.155092e-03
-1.012733e-03
-8.636060e-04
-7.423487e-04
0.000000e+00
0.000000e+00
-0.000000e+00
-0.000000e+00
-0.000000e+00
-0.000000e+00
2.766100e-18
-5.152827e-18
-2.477624e-18
1.930337e-18
-4.741885e-18
-3.860674e-18
-4.240047e-18
9.424443e-19
9.673453e-19
9.851687e-19
1.162058e-18
-5.777967e-18
-1.634434e-20
-3.756508e-18
-2.811299e-18
6.139633e-19
-1.399178e-18
-9.118097e-19
3.044752e-18
-1.723579e-18
1.105554e-18
-1.447978e-18
-2.115051e-18
4.141240e-18
8.052267e-18
5.900652e-18
1.507923e-17
3.769252e-18
-4.326723e-18
3.679312e-17
4.440828e-16
3.034359e-15
1.592901e-14
6.980652e-14
2.577746e-13
7.810241e-13
1.746417e-12
1.453090e-12
-1.120153e-11
-8.137538e-11
-3.485057e-10
-1.142571e-09
-2.986534e-09
-5.947080e-09
-6.852312e-09
8.199284e-09
7.766702e-08
2.775583e-07
7.018019e-07
1.342050e-06
1.797033e-06
8.442230e-07
-3.910563e-06
-1.591953e-05
-3.846931e-05
-7.047163e-05
-9.452966e-05
-5.974139e-05
1.033230e-04
3.788145e-04
6.193410e-04
7.022266e-04
6.318941e-04
4.850904e-04
3.344143e-04
2.179706e-04
1.439350e-04
1.054109e-04
9.150435e-05
9.226224e-05
9.982164e-05
1.081841e-04
1.129077e-04
1.110263e-04
1.010282e-04
8.270112e-05
5.680499e-05
2.466232e-05
-1.222021e-05
-5.242183e-05
-9.474861e-05
-1.382668e-04
-1.822703e-04
-2.262248e-04
-2.697190e-04
-3.124386e-04
-3.541586e-04
-3.947468e-04
-4.341649e-04
-4.724600e-04
-5.097447e-04
-5.461664e-04
-5.818684e-04
-6.169458e-04
-6.513988e-04
-6.850884e-04
-7.177007e-04
-7.487293e-04
-7.774838e-04
-8.031294e-04
-8.247555e-04
-8.414693e-04
-8.525003e-04
-8.573048e-04
-8.556539e-04
-8.476941e-04
-8.339642e-04
-8.153635e-04
-7.930654e-04
-7.683866e-04
-7.426293e-04
-7.169249e-04
-6.921159e-04
-6.687080e-04
-6.469199e-04
-6.268252e-04
-6.085453e-04
-5.924101e-04
-5.789969e-04
-5.690192e-04
-5.631549e-04
-5.620158e-04
-5.664300e-04
-5.779260e-04
-5.988607e-04
-6.314471e-04
-6.755473e-04
-7.263860e-04
-7.741088e-04
-8.061821e-04
-8.115541e-04
-7.842769e-04
-7.251547e-04
-6.418399e-04
0.000000e+00
0.000000e+00
-0.000000e+00
-0.000000e+00
-0.000000e+00
1.975786e-19
8.969958e-19
-3.556414e-18
4.712221e-19
3.723376e-18
1.139070e-18
1.276368e-18
1.276368e-18
2.518310e-18
-3.161006e-19
2.466051e-18
-5.488397e-18
-9.326510e-19
-2.335346e-18
1.194954e-18
-2.515181e-18
4.013251e-19
1.888980e-18
1.723820e-18
1.411170e-18
1.314436e-18
5.125070e-18
1.000929e-18
1.579612e-19
-3.050217e-19
2.187122e-18
1.879294e-18
1.119424e-18
-1.057295e-18
3.085258e-17
2.825726e-16
1.636801e-15
8.048022e-15
3.368713e-14
1.182199e-13
3.269348e-13
5.511781e-13
-7.282002e-13
-1.149089e-11
-6.184287e-11
-2.401868e-10
-7.416191e-10
-1.814233e-09
-3.154895e-09
-1.604025e-09
1.476587e-08
7.688124e-08
2.415901e-07
5.656238e-07
9.865212e-07
1.053190e-06
-4.529893e-07
-5.802062e-06
-1.810761e-05
-3.955861e-05
-6.535465e-05
-6.827430e-05
1.194269e-05
2.160863e-04
4.594648e-04
5.986665e-04
5.855313e-04
4.712545e-04
3.299265e-04
2.097266e-04
1.265413e-04
7.718553e-05
5.236763e-05
4.345129e-05
4.448236e-05
5.194116e-05
6.379011e-05
7.856975e-05
9.483512e-05
1.109806e-04
1.253531e-04
1.364847e-04
1.432942e-04
1.451763e-04
1.419789e-04
1.339114e-04
1.214354e-04
1.051696e-04
8.581604e-05
6.410304e-05
4.073608e-05
1.635413e-05
-8.504214e-06
-3.341895e-05
-5.808709e-05
-8.230249e-05
-1.059218e-04
-1.288235e-04
-1.508650e-04
-1.718433e-04
-1.914634e-04
-2.093191e-04
-2.248946e-04
-2.375921e-04
-2.467885e-04
-2.519179e-04
-2.525703e-04
-2.485901e-04
-2.401586e-04
-2.278419e-04
-2.125900e-04
-1.956748e-04
-1.785618e-04
-1.627244e-04
-1.494281e-04
-1.395280e-04
-1.333291e-04
-1.305399e-04
-1.303220e-04
-1.314092e-04
-1.322575e-04
-1.311948e-04
-1.265560e-04
-1.168048e-04
-1.006731e-04
-7.739444e-05
-4.715905e-05
-1.187224e-05
2.392918e-05
5.255534e-05
6.391333e-05
4.818498e-05
6.038320e-08
-7.722709e-05
-1.704096e-04
-2.585432e-04
-3.184280e-04
-3.308589e-04
-2.857807e-04
-1.857592e-04
0.000000e+00
0.000000e+00
-0.000000e+00
-0.000000e+00
-0.000000e+00
-1.383050e-18
3.951571e-18
3.161257e-18
1.975786e-19
-4.255831e-18
-2.477624e-18
8.051462e-19
2.032256e-18
1.347261e-18
-3.527435e-18
1.064902e-18
-4.188298e-19
-2.797176e-18
5.462578e-19
8.537078e-19
-2.629948e-19
-3.277070e-18
6.286699e-18
-1.787596e-18
3.573423e-18
1.719893e-18
-4.687653e-18
-2.965764e-18
-3.079907e-18
-9.606790e-19
-7.631412e-20
2.458531e-18
2.022550e-18
2.039144e-17
1.410504e-16
7.964088e-16
3.700246e-15
1.482563e-14
4.869950e-14
1.147996e-13
6.291575e-14
-1.234500e-12
-9.034258e-12
-4.209488e-11
-1.528354e-10
-4.466890e-10
-1.006667e-09
-1.377691e-09
1.248046e-09
1.648548e-08
6.791107e-08
1.954164e-07
4.261223e-07
6.625190e-07
4.415433e-07
-1.395997e-06
-6.926353e-06
-1.879877e-05
-3.783492e-05
-5.469990e-05
-3.357872e-05
8.342359e-05
2.906391e-04
4.699493e-04
5.239871e-04
4.597606e-04
3.411346e-04
2.253682e-04
1.389417e-04
8.422911e-05
5.337172e-05
3.737792e-05
2.965665e-05
2.640558e-05
2.585878e-05
2.743326e-05
3.112787e-05
3.717665e-05
4.584526e-05
5.728205e-05
7.139911e-05
8.780107e-05
1.057836e-04
1.244052e-04
1.426136e-04
1.593939e-04
1.739033e-04
1.855633e-04
1.940939e-04
1.994923e-04
2.019693e-04
2.018690e-04
1.995933e-04
1.955483e-04
1.901171e-04
1.836582e-04
1.765183e-04
1.690535e-04
1.616498e-04
1.547402e-04
1.488109e-04
1.443914e-04
1.420209e-04
1.421846e-04
1.452230e-04
1.512246e-04
1.599265e-04
1.706495e-04
1.823002e-04
1.934607e-04
2.025723e-04
2.081958e-04
2.093026e-04
2.055273e-04
1.973030e-04
1.858287e-04
1.728655e-04
1.604285e-04
1.504742e-04
1.446806e-04
1.443583e-04
1.504748e-04
1.637330e-04
1.846356e-04
2.134579e-04
2.500158e-04
2.931147e-04
3.396829e-04
3.838917e-04
4.169234e-04
4.281589e-04
4.081267e-04
3.525692e-04
2.659794e-04
1.627252e-04
6.477468e-05
-3.448714e-06
-2.143181e-05
2.161295e-05
1.226657e-04
0.000000e+00
0.000000e+00
-0.000000e+00
3.951571e-19
1.975786e-19
-1.489731e-18
2.173364e-18
-3.739160e-18
-1.565796e-18
-2.127916e-18
-7.903142e-19
-6.410419e-19
3.922450e-18
2.299365e-18
-1.532055e-18
-2.741734e-18
-5.317667e-18
8.663946e-19
3.535421e-18
4.225136e-18
-3.413697e-18
-1.030013e-18
-4.252270e-18
-1.089031e-17
-7.712483e-19
1.279148e-18
-2.077847e-18
-2.382822e-18
-6.047128e-19
1.009947e-18
-3.628791e-18
-9.216875e-18
8.684964e-18
6.297190e-17
3.506146e-16
1.552998e-15
5.901367e-15
1.744000e-14
2.810634e-14
-8.654268e-14
-1.068224e-12
-6.123088e-12
-2.617938e-11
-9.012591e-11
-2.484250e-10
-4.973220e-10
-3.686961e-10
2.429908e-09
1.521542e-08
5.500552e-08
1.477525e-07
2.990713e-07
3.937139e-07
-1.284266e-08
-1.977262e-06
-7.331936e-06
-1.815420e-05
-3.366758e-05
-3.990727e-05
4.062824e-06
1.402660e-04
3.205394e-04
4.332285e-04
4.312291e-04
3.491761e-04
2.453830e-04
1.583498e-04
9.969847e-05
6.547586e-05
4.726772e-05
3.780116e-05
3.243800e-05
2.878144e-05
2.579617e-05
2.308123e-05
2.048195e-05
1.799044e-05
1.579011e-05
1.430309e-05
1.415723e-05
1.606011e-05
2.062178e-05
2.819027e-05
3.875448e-05
5.194010e-05
6.708914e-05
8.338885e-05
1.000065e-04
1.161956e-04
1.313556e-04
1.450506e-04
1.569980e-04
1.670495e-04
1.751729e-04
1.814413e-04
1.860256e-04
1.891844e-04
1.912493e-04
1.926026e-04
1.936515e-04
1.947955e-04
1.963864e-04
1.986751e-04
2.017430e-04
2.054275e-04
2.092574e-04
2.124315e-04
2.138730e-04
2.123823e-04
2.068864e-04
1.967419e-04
1.820159e-04
1.636446e-04
1.433924e-04
1.235829e-04
1.066570e-04
9.467756e-05
8.893424e-05
8.977065e-05
9.668322e-05
1.086522e-04
1.245985e-04
1.438290e-04
1.663236e-04
1.927104e-04
2.237997e-04
2.596610e-04
2.984648e-04
3.355842e-04
3.635818e-04
3.735246e-04
3.575508e-04
3.119815e-04
2.398799e-04
1.520239e-04
6.568665e-05
1.197802e-06
-2.311044e-05
3.656155e-06
8.072653e-05
0.000000e+00
0.000000e+00
-0.000000e+00
-1.185471e-18
-5.927357e-19
1.778207e-18
-2.884755e-19
1.185471e-18
-1.306985e-18
-4.179766e-18
-1.688672e-19
2.331753e-18
3.972252e-18
-1.984768e-18
-7.058013e-19
1.082809e-18
5.040805e-18
-2.623957e-18
-2.237189e-18
1.872645e-18
-2.530246e-18
1.512513e-18
-1.593941e-18
7.276242e-19
4.337893e-18
6.344397e-18
1.957621e-18
5.376169e-19
1.392811e-18
4.824135e-19
3.533146e-18
2.578150e-18
2.962308e-17
1.406331e-16
5.844790e-16
2.081071e-15
5.013334e-15
-7.978198e-16
-9.933475e-14
-7.344231e-13
-3.724851e-12
-1.501133e-11
-4.922718e-11
-1.261586e-10
-2.057354e-10
1.185564e-10
2.590586e-09
1.247897e-08
4.138118e-08
1.045960e-07
1.938414e-07
1.904387e-07
-3.098783e-07
-2.232320e-06
-7.131208e-06
-1.645365e-05
-2.769932e-05
-2.309283e-05
3.825129e-05
1.741379e-04
3.137189e-04
3.733728e-04
3.420267e-04
2.622844e-04
1.798510e-04
1.178190e-04
7.916099e-05
5.784015e-05
4.666641e-05
4.046095e-05
3.641882e-05
3.337085e-05
3.089853e-05
2.872059e-05
2.644460e-05
2.359802e-05
1.978959e-05
1.486707e-05
8.991051e-06
2.603512e-06
-3.685807e-06
-9.248408e-06
-1.357157e-05
-1.634221e-05
-1.746710e-05
-1.704006e-05
-1.528128e-05
-1.247554e-05
-8.927055e-06
-4.934346e-06
-7.781511e-07
3.288686e-06