# vtk DataFile Version 3.0
Resultado Projeto 3
ASCII
DATASET STRUCTURED_GRID
DIMENSIONS 70 30 1 
POINTS 2100 double
0.000000e+00 0.000000e+00 0.000000e+00
5.072464e-02 0.000000e+00 0.000000e+00
1.014493e-01 0.000000e+00 0.000000e+00
1.521739e-01 0.000000e+00 0.000000e+00
2.028986e-01 0.000000e+00 0.000000e+00
2.536232e-01 0.000000e+00 0.000000e+00
3.043478e-01 0.000000e+00 0.000000e+00
3.550725e-01 0.000000e+00 0.000000e+00
4.057971e-01 0.000000e+00 0.000000e+00
4.565217e-01 0.000000e+00 0.000000e+00
5.072464e-01 0.000000e+00 0.000000e+00
5.579710e-01 0.000000e+00 0.000000e+00
6.086957e-01 0.000000e+00 0.000000e+00
6.594203e-01 0.000000e+00 0.000000e+00
7.101449e-01 0.000000e+00 0.000000e+00
7.608696e-01 0.000000e+00 0.000000e+00
8.115942e-01 0.000000e+00 0.000000e+00
8.623188e-01 0.000000e+00 0.000000e+00
9.130435e-01 0.000000e+00 0.000000e+00
9.637681e-01 0.000000e+00 0.000000e+00
1.014493e+00 0.000000e+00 0.000000e+00
1.065217e+00 0.000000e+00 0.000000e+00
1.115942e+00 0.000000e+00 0.000000e+00
1.166667e+00 0.000000e+00 0.000000e+00
1.217391e+00 0.000000e+00 0.000000e+00
1.268116e+00 0.000000e+00 0.000000e+00
1.318841e+00 0.000000e+00 0.000000e+00
1.369565e+00 0.000000e+00 0.000000e+00
1.420290e+00 0.000000e+00 0.000000e+00
1.471014e+00 0.000000e+00 0.000000e+00
1.521739e+00 0.000000e+00 0.000000e+00
1.572464e+00 0.000000e+00 0.000000e+00
1.623188e+00 0.000000e+00 0.000000e+00
1.673913e+00 0.000000e+00 0.000000e+00
1.724638e+00 0.000000e+00 0.000000e+00
1.775362e+00 0.000000e+00 0.000000e+00
1.826087e+00 0.000000e+00 0.000000e+00
1.876812e+00 0.000000e+00 0.000000e+00
1.927536e+00 0.000000e+00 0.000000e+00
1.978261e+00 0.000000e+00 0.000000e+00
2.028986e+00 0.000000e+00 0.000000e+00
2.079710e+00 0.000000e+00 0.000000e+00
2.130435e+00 0.000000e+00 0.000000e+00
2.181159e+00 0.000000e+00 0.000000e+00
2.231884e+00 0.000000e+00 0.000000e+00
2.282609e+00 0.000000e+00 0.000000e+00
2.333333e+00 0.000000e+00 0.000000e+00
2.384058e+00 0.000000e+00 0.000000e+00
2.434783e+00 0.000000e+00 0.000000e+00
2.485507e+00 0.000000e+00 0.000000e+00
2.536232e+00 0.000000e+00 0.000000e+00
2.586957e+00 0.000000e+00 0.000000e+00
2.637681e+00 0.000000e+00 0.000000e+00
2.688406e+00 0.000000e+00 0.000000e+00
2.739130e+00 0.000000e+00 0.000000e+00
2.789855e+00 0.000000e+00 0.000000e+00
2.840580e+00 0.000000e+00 0.000000e+00
2.891304e+00 0.000000e+00 0.000000e+00
2.942029e+00 0.000000e+00 0.000000e+00
2.992754e+00 0.000000e+00 0.000000e+00
3.043478e+00 0.000000e+00 0.000000e+00
3.094203e+00 0.000000e+00 0.000000e+00
3.144928e+00 0.000000e+00 0.000000e+00
3.195652e+00 0.000000e+00 0.000000e+00
3.246377e+00 0.000000e+00 0.000000e+00
3.297101e+00 0.000000e+00 0.000000e+00
3.347826e+00 0.000000e+00 0.000000e+00
3.398551e+00 0.000000e+00 0.000000e+00
3.449275e+00 0.000000e+00 0.000000e+00
3.500000e+00 0.000000e+00 0.000000e+00
0.000000e+00 3.448276e-02 0.000000e+00
5.072464e-02 3.448276e-02 0.000000e+00
1.014493e-01 3.448276e-02 0.000000e+00
1.521739e-01 3.448276e-02 0.000000e+00
2.028986e-01 3.448276e-02 0.000000e+00
2.536232e-01 3.448276e-02 0.000000e+00
3.043478e-01 3.448276e-02 0.000000e+00
3.550725e-01 3.448276e-02 0.000000e+00
4.057971e-01 3.448276e-02 0.000000e+00
4.565217e-01 3.448276e-02 0.000000e+00
5.072464e-01 3.448276e-02 0.000000e+00
5.579710e-01 3.448276e-02 0.000000e+00
6.086957e-01 3.448276e-02 0.000000e+00
6.594203e-01 3.448276e-02 0.000000e+00
7.101449e-01 3.448276e-02 0.000000e+00
7.608696e-01 3.448276e-02 0.000000e+00
8.115942e-01 3.448276e-02 0.000000e+00
8.623188e-01 3.448276e-02 0.000000e+00
9.130435e-01 3.448276e-02 0.000000e+00
9.637681e-01 3.448276e-02 0.000000e+00
1.014493e+00 3.448276e-02 0.000000e+00
1.065217e+00 3.448276e-02 0.000000e+00
1.115942e+00 3.448276e-02 0.000000e+00
1.166667e+00 3.448276e-02 0.000000e+00
1.217391e+00 3.448276e-02 0.000000e+00
1.268116e+00 3.448276e-02 0.000000e+00
1.318841e+00 3.448276e-02 0.000000e+00
1.369565e+00 3.448276e-02 0.000000e+00
1.420290e+00 3.448276e-02 0.000000e+00
1.471014e+00 3.448276e-02 0.000000e+00
1.521739e+00 3.448276e-02 0.000000e+00
1.572464e+00 3.448276e-02 0.000000e+00
1.623188e+00 3.448276e-02 0.000000e+00
1.673913e+00 3.448276e-02 0.000000e+00
1.724638e+00 3.448276e-02 0.000000e+00
1.775362e+00 3.448276e-02 0.000000e+00
1.826087e+00 3.448276e-02 0.000000e+00
1.876812e+00 3.448276e-02 0.000000e+00
1.927536e+00 3.448276e-02 0.000000e+00
1.978261e+00 3.448276e-02 0.000000e+00
2.028986e+00 3.448276e-02 0.000000e+00
2.079710e+00 3.448276e-02 0.000000e+00
2.130435e+00 3.448276e-02 0.000000e+00
2.181159e+00 3.448276e-02 0.000000e+00
2.231884e+00 3.448276e-02 0.000000e+00
2.282609e+00 3.448276e-02 0.000000e+00
2.333333e+00 3.448276e-02 0.000000e+00
2.384058e+00 3.448276e-02 0.000000e+00
2.434783e+00 3.448276e-02 0.000000e+00
2.485507e+00 3.448276e-02 0.000000e+00
2.536232e+00 3.448276e-02 0.000000e+00
2.586957e+00 3.448276e-02 0.000000e+00
2.637681e+00 3.448276e-02 0.000000e+00
2.688406e+00 3.448276e-02 0.000000e+00
2.739130e+00 3.448276e-02 0.000000e+00
2.789855e+00 3.448276e-02 0.000000e+00
2.840580e+00 3.448276e-02 0.000000e+00
2.891304e+00 3.448276e-02 0.000000e+00
2.942029e+00 3.448276e-02 0.000000e+00
2.992754e+00 3.448276e-02 0.000000e+00
3.043478e+00 3.448276e-02 0.000000e+00
3.094203e+00 3.448276e-02 0.000000e+00
3.144928e+00 3.448276e-02 0.000000e+00
3.195652e+00 3.448276e-02 0.000000e+00
3.246377e+00 3.448276e-02 0.000000e+00
3.297101e+00 3.448276e-02 0.000000e+00
3.347826e+00 3.448276e-02 0.000000e+00
3.398551e+00 3.448276e-02 0.000000e+00
3.449275e+00 3.448276e-02 0.000000e+00
3.500000e+00 3.448276e-02 0.000000e+00
0.000000e+00 6.896552e-02 0.000000e+00
5.072464e-02 6.896552e-02 0.000000e+00
1.014493e-01 6.896552e-02 0.000000e+00
1.521739e-01 6.896552e-02 0.000000e+00
2.028986e-01 6.896552e-02 0.000000e+00
2.536232e-01 6.896552e-02 0.000000e+00
3.043478e-01 6.896552e-02 0.000000e+00
3.550725e-01 6.896552e-02 0.000000e+00
4.057971e-01 6.896552e-02 0.000000e+00
4.565217e-01 6.896552e-02 0.000000e+00
5.072464e-01 6.896552e-02 0.000000e+00
5.579710e-01 6.896552e-02 0.000000e+00
6.086957e-01 6.896552e-02 0.000000e+00
6.594203e-01 6.896552e-02 0.000000e+00
7.101449e-01 6.896552e-02 0.000000e+00
7.608696e-01 6.896552e-02 0.000000e+00
8.115942e-01 6.896552e-02 0.000000e+00
8.623188e-01 6.896552e-02 0.000000e+00
9.130435e-01 6.896552e-02 0.000000e+00
9.637681e-01 6.896552e-02 0.000000e+00
1.014493e+00 6.896552e-02 0.000000e+00
1.065217e+00 6.896552e-02 0.000000e+00
1.115942e+00 6.896552e-02 0.000000e+00
1.166667e+00 6.896552e-02 0.000000e+00
1.217391e+00 6.896552e-02 0.000000e+00
1.268116e+00 6.896552e-02 0.000000e+00
1.318841e+00 6.896552e-02 0.000000e+00
1.369565e+00 6.896552e-02 0.000000e+00
1.420290e+00 6.896552e-02 0.000000e+00
1.471014e+00 6.896552e-02 0.000000e+00
1.521739e+00 6.896552e-02 0.000000e+00
1.572464e+00 6.896552e-02 0.000000e+00
1.623188e+00 6.896552e-02 0.000000e+00
1.673913e+00 6.896552e-02 0.000000e+00
1.724638e+00 6.896552e-02 0.000000e+00
1.775362e+00 6.896552e-02 0.000000e+00
1.826087e+00 6.896552e-02 0.000000e+00
1.876812e+00 6.896552e-02 0.000000e+00
1.927536e+00 6.896552e-02 0.000000e+00
1.978261e+00 6.896552e-02 0.000000e+00
2.028986e+00 6.896552e-02 0.000000e+00
2.079710e+00 6.896552e-02 0.000000e+00
2.130435e+00 6.896552e-02 0.000000e+00
2.181159e+00 6.896552e-02 0.000000e+00
2.231884e+00 6.896552e-02 0.000000e+00
2.282609e+00 6.896552e-02 0.000000e+00
2.333333e+00 6.896552e-02 0.000000e+00
2.384058e+00 6.896552e-02 0.000000e+00
2.434783e+00 6.896552e-02 0.000000e+00
2.485507e+00 6.896552e-02 0.000000e+00
2.536232e+00 6.896552e-02 0.000000e+00
2.586957e+00 6.896552e-02 0.000000e+00
2.637681e+00 6.896552e-02 0.000000e+00
2.688406e+00 6.896552e-02 0.000000e+00
2.739130e+00 6.896552e-02 0.000000e+00
2.789855e+00 6.896552e-02 0.000000e+00
2.840580e+00 6.896552e-02 0.000000e+00
2.891304e+00 6.896552e-02 0.000000e+00
2.942029e+00 6.896552e-02 0.000000e+00
2.992754e+00 6.896552e-02 0.000000e+00
3.043478e+00 6.896552e-02 0.000000e+00
3.094203e+00 6.896552e-02 0.000000e+00
3.144928e+00 6.896552e-02 0.000000e+00
3.195652e+00 6.896552e-02 0.000000e+00
3.246377e+00 6.896552e-02 0.000000e+00
3.297101e+00 6.896552e-02 0.000000e+00
3.347826e+00 6.896552e-02 0.000000e+00
3.398551e+00 6.896552e-02 0.000000e+00
3.449275e+00 6.896552e-02 0.000000e+00
3.500000e+00 6.896552e-02 0.000000e+00
0.000000e+00 1.034483e-01 0.000000e+00
5.072464e-02 1.034483e-01 0.000000e+00
1.014493e-01 1.034483e-01 0.000000e+00
1.521739e-01 1.034483e-01 0.000000e+00
2.028986e-01 1.034483e-01 0.000000e+00
2.536232e-01 1.034483e-01 0.000000e+00
3.043478e-01 1.034483e-01 0.000000e+00
3.550725e-01 1.034483e-01 0.000000e+00
4.057971e-01 1.034483e-01 0.000000e+00
4.565217e-01 1.034483e-01 0.000000e+00
5.072464e-01 1.034483e-01 0.000000e+00
5.579710e-01 1.034483e-01 0.000000e+00
6.086957e-01 1.034483e-01 0.000000e+00
6.594203e-01 1.034483e-01 0.000000e+00
7.101449e-01 1.034483e-01 0.000000e+00
7.608696e-01 1.034483e-01 0.000000e+00
8.115942e-01 1.034483e-01 0.000000e+00
8.623188e-01 1.034483e-01 0.000000e+00
9.130435e-01 1.034483e-01 0.000000e+00
9.637681e-01 1.034483e-01 0.000000e+00
1.014493e+00 1.034483e-01 0.000000e+00
1.065217e+00 1.034483e-01 0.000000e+00
1.115942e+00 1.034483e-01 0.000000e+00
1.166667e+00 1.034483e-01 0.000000e+00
1.217391e+00 1.034483e-01 0.000000e+00
1.268116e+00 1.034483e-01 0.000000e+00
1.318841e+00 1.034483e-01 0.000000e+00
1.369565e+00 1.034483e-01 0.000000e+00
1.420290e+00 1.034483e-01 0.000000e+00
1.471014e+00 1.034483e-01 0.000000e+00
1.521739e+00 1.034483e-01 0.000000e+00
1.572464e+00 1.034483e-01 0.000000e+00
1.623188e+00 1.034483e-01 0.000000e+00
1.673913e+00 1.034483e-01 0.000000e+00
1.724638e+00 1.034483e-01 0.000000e+00
1.775362e+00 1.034483e-01 0.000000e+00
1.826087e+00 1.034483e-01 0.000000e+00
1.876812e+00 1.034483e-01 0.000000e+00
1.927536e+00 1.034483e-01 0.000000e+00
1.978261e+00 1.034483e-01 0.000000e+00
2.028986e+00 1.034483e-01 0.000000e+00
2.079710e+00 1.034483e-01 0.000000e+00
2.130435e+00 1.034483e-01 0.000000e+00
[...]
POINT_DATA 2100
SCALARS RES_Cont double
LOOKUP_TABLE default
0.000000e+00
0.000000e+00
0.000000e+00
0.000000e+00
0.000000e+00
0.000000e+00
0.000000e+00
0.000000e+00
0.000000e+00
0.000000e+00
0.000000e+00
0.000000e+00
0.000000e+00
0.000000e+00
0.000000e+00
0.000000e+00
0.000000e+00
0.000000e+00
0.000000e+00
0.000000e+00
0.000000e+00
0.000000e+00
0.000000e+00
0.000000e+00
0.000000e+00
0.000000e+00
0.000000e+00
0.000000e+00
0.000000e+00
0.000000e+00
0.000000e+00
0.000000e+00
0.000000e+00
0.000000e+00
0.000000e+00
0.000000e+00
0.000000e+00
0.000000e+00
0.000000e+00
0.000000e+00
0.000000e+00
0.000000e+00
0.000000e+00
0.000000e+00
0.000000e+00
0.000000e+00
0.000000e+00
0.000000e+00
0.000000e+00
0.000000e+00
0.000000e+00
0.000000e+00
0.000000e+00
0.000000e+00
0.000000e+00
0.000000e+00
0.000000e+00
0.000000e+00
0.000000e+00
0.000000e+00
0.000000e+00
0.000000e+00
0.000000e+00
0.000000e+00
0.000000e+00
0.000000e+00
0.000000e+00
0.000000e+00
0.000000e+00
0.000000e+00
0.000000e+00
3.575104e-15
7.453239e-14
7.779581e-13
5.423967e-12
2.842529e-11
1.194751e-10
4.196495e-10
1.267328e-09
3.360177e-09
7.948262e-09
1.698833e-08
3.315254e-08
5.958762e-08
9.938396e-08
1.548284e-07
2.266350e-07
3.134102e-07
4.115721e-07
5.158028e-07
6.199342e-07
7.180168e-07
8.052748e-07
8.787100e-07
9.372543e-07
9.815203e-07
1.013297e-06
1.034975e-06
1.049038e-06
1.057721e-06
1.062824e-06
1.065682e-06
1.067206e-06
1.067981e-06
1.068356e-06
1.068530e-06
1.068606e-06
1.068638e-06
1.068651e-06
1.068656e-06
1.068658e-06
1.068658e-06
1.068659e-06
1.068659e-06
1.068659e-06
1.068659e-06
1.068659e-06
1.068659e-06
1.068659e-06
1.068659e-06
1.068659e-06
1.068659e-06
1.068659e-06
1.068659e-06
1.068659e-06
1.068659e-06
1.068659e-06
1.068659e-06
1.068659e-06
1.068659e-06
1.068659e-06
1.068659e-06
1.068659e-06
1.068659e-06
1.068659e-06
1.068659e-06
1.068659e-06
1.068659e-06
1.068659e-06
0.000000e+00
0.000000e+00
6.715127e-15
1.403816e-13
1.470332e-12
1.029116e-11
5.416896e-11
2.287978e-10
8.080537e-10
2.455212e-09
6.553739e-09
1.561763e-08
3.365117e-08
6.624554e-08
1.201860e-07
2.024478e-07
3.186752e-07
4.714949e-07
6.591825e-07
8.751815e-07
1.108744e-06
1.346592e-06
1.575163e-06
1.782813e-06
1.961423e-06
2.107082e-06
2.219838e-06
2.302779e-06
2.360805e-06
2.399445e-06
2.423952e-06
2.438763e-06
2.447297e-06
2.451987e-06
2.454445e-06
2.455674e-06
2.456260e-06
2.456527e-06
2.456642e-06
2.456690e-06
2.456709e-06
2.456716e-06
2.456719e-06
2.456720e-06
2.456720e-06
2.456720e-06
2.456720e-06
2.456720e-06
2.456720e-06
2.456720e-06
2.456720e-06
2.456720e-06
2.456720e-06
2.456720e-06
2.456720e-06
2.456720e-06
2.456720e-06
2.456720e-06
2.456720e-06
2.456720e-06
2.456720e-06
2.456720e-06
2.456720e-06
2.456720e-06
2.456720e-06
2.456720e-06
2.456720e-06
2.456720e-06
2.456720e-06
2.456720e-06
0.000000e+00
0.000000e+00
1.416910e-14
2.966031e-13
3.111819e-12
2.182514e-11
1.151701e-10
4.879344e-10
1.729488e-09
5.277198e-09
1.415561e-08
3.392203e-08
7.355367e-08
1.458170e-07
2.665954e-07
4.528327e-07
7.191931e-07
1.074109e-06
1.516339e-06
2.033229e-06
2.601465e-06
3.190357e-06
3.766825e-06
4.300773e-06
4.769443e-06
5.159799e-06
5.468681e-06
5.701121e-06
5.867619e-06
5.981229e-06
6.055124e-06
6.100964e-06
6.128095e-06
6.143421e-06
6.151686e-06
6.155941e-06
6.158033e-06
6.159015e-06
6.159455e-06
6.159643e-06
6.159720e-06
6.159750e-06
6.159761e-06
6.159765e-06
6.159766e-06
6.159767e-06
6.159767e-06
6.159767e-06
6.159767e-06
6.159767e-06
6.159767e-06
6.159767e-06
6.159767e-06
6.159767e-06
6.159767e-06
6.159767e-06
6.159767e-06
6.159767e-06
6.159767e-06
6.159767e-06
6.159767e-06
6.159767e-06
6.159767e-06
6.159767e-06
6.159767e-06
6.159767e-06
6.159767e-06
6.159767e-06
6.159767e-06
6.159767e-06
0.000000e+00
0.000000e+00
2.974793e-14
6.229062e-13
6.538476e-12
4.589914e-11
2.425202e-10
1.029277e-09
3.656609e-09
1.118944e-08
3.012002e-08
7.248168e-08
1.579367e-07
3.148754e-07
5.793648e-07
9.910825e-07
1.586239e-06
2.388715e-06
3.401711e-06
4.602609e-06
5.943113e-06
7.355223e-06
8.761754e-06
1.008868e-05
1.127609e-05
1.228531e-05
1.310097e-05
1.372844e-05
1.418833e-05
1.450969e-05
1.472393e-05
1.486026e-05
1.494311e-05
1.499119e-05
1.501786e-05
1.503200e-05
1.503916e-05
1.504262e-05
1.504422e-05
1.504493e-05
1.504522e-05
1.504535e-05
1.504539e-05
1.504541e-05
1.504541e-05
1.504542e-05
1.504542e-05
1.504542e-05
1.504542e-05
1.504542e-05
1.504542e-05
1.504542e-05
1.504542e-05
1.504542e-05
1.504542e-05
1.504542e-05
1.504542e-05
1.504542e-05
1.504542e-05
1.504542e-05
1.504542e-05
1.504542e-05
1.504542e-05
1.504542e-05
1.504542e-05
1.504542e-05
1.504542e-05
1.504542e-05
1.504542e-05
1.504542e-05
0.000000e+00
0.000000e+00
6.074132e-14
1.271162e-12
1.334051e-11
9.365620e-11
4.950740e-10
2.102931e-09
7.480849e-09
2.293497e-08
6.189114e-08
1.494086e-07
3.268248e-07
6.546036e-07
1.210949e-06
2.084188e-06
3.358533e-06
5.095294e-06
7.313994e-06
9.979045e-06
1.299687e-05
1.622558e-05
1.949554e-05
2.263573e-05
2.549926e-05
2.798204e-05
3.003108e-05
3.164236e-05
3.285064e-05
3.371534e-05
3.430625e-05
3.469206e-05
3.493280e-05
3.507643e-05
3.515836e-05
3.520306e-05
3.522638e-05
3.523802e-05
3.524357e-05
3.524610e-05
3.524720e-05
3.524766e-05
3.524785e-05
3.524792e-05
3.524794e-05
3.524795e-05
3.524795e-05
3.524795e-05
3.524795e-05
3.524795e-05
3.524795e-05
3.524795e-05
3.524795e-05
3.524795e-05
3.524795e-05
3.524795e-05
3.524795e-05
3.524795e-05
3.524795e-05
3.524795e-05
3.524795e-05
3.524795e-05
3.524795e-05
3.524795e-05
3.524795e-05
3.524795e-05
3.524795e-05
3.524795e-05
3.524795e-05
3.524795e-05
0.000000e+00
0.000000e+00
1.201224e-13
2.511482e-12
2.633546e-11
1.847795e-10
9.764857e-10
4.148167e-09
1.476400e-08
4.530952e-08
1.224627e-07
2.962841e-07
6.499803e-07
1.306549e-06
2.427455e-06
4.199061e-06
6.805401e-06
1.039054e-05
1.501872e-05
2.064337e-05
2.709559e-05
3.409766e-05
4.130024e-05
4.833452e-05
5.486659e-05
6.064126e-05
6.550670e-05
6.941727e-05
7.241801e-05
7.461781e-05
7.615931e-05
7.719232e-05
7.785455e-05
7.826079e-05
7.849928e-05
7.863329e-05
7.870535e-05
7.874244e-05
7.876071e-05
7.876932e-05
7.877320e-05
7.877487e-05
7.877556e-05
7.877583e-05
7.877593e-05
7.877597e-05
7.877598e-05
7.877598e-05
7.877598e-05
7.877598e-05
7.877598e-05
7.877598e-05
7.877598e-05
7.877598e-05
7.877598e-05
7.877598e-05
7.877598e-05
7.877598e-05
7.877598e-05
7.877598e-05
7.877598e-05
7.877598e-05
7.877598e-05
7.877598e-05
7.877598e-05
7.877598e-05
7.877598e-05
7.877598e-05
7.877598e-05
7.877598e-05
0.000000e+00
0.000000e+00
2.300499e-13
4.802393e-12
5.029054e-11
3.524510e-10
1.860868e-09
7.900236e-09
2.811116e-08
8.628606e-08
2.333695e-07
5.652934e-07
1.242354e-06
2.503311e-06
4.664986e-06
8.098826e-06
1.318086e-05
2.022014e-05
2.938016e-05
4.061434e-05
5.363588e-05
6.793458e-05
8.283984e-05
9.761601e-05
1.115674e-04
1.241293e-04
1.349270e-04
1.437947e-04
1.507578e-04
1.559883e-04
1.597485e-04
1.623366e-04
1.640423e-04
1.651191e-04
1.657701e-04
1.661472e-04
1.663564e-04
1.664675e-04
1.665240e-04
1.665516e-04
1.665644e-04
1.665701e-04
1.665726e-04
1.665736e-04
1.665739e-04
1.665741e-04
1.665741e-04
1.665742e-04
1.665742e-04
1.665742e-04
1.665742e-04
1.665742e-04
1.665742e-04
1.665742e-04
1.665742e-04
1.665742e-04
1.665742e-04
1.665742e-04
1.665742e-04
1.665742e-04
1.665742e-04
1.665742e-04
1.665742e-04
1.665742e-04
1.665742e-04
1.665742e-04
1.665742e-04
1.665742e-04
1.665742e-04
1.665742e-04
0.000000e+00
0.000000e+00
4.266750e-13
8.890446e-12
9.293673e-11
6.502721e-10
3.428344e-09
1.453714e-08
5.167813e-08
1.585251e-07
4.286361e-07
1.038424e-06
2.283350e-06
4.605010e-06
8.592139e-06
1.493951e-05
2.435766e-05
3.744238e-05
5.453080e-05
7.558231e-05
1.001209e-04
1.272601e-04
1.558079e-04
1.844283e-04
2.118215e-04
2.368856e-04
2.588311e-04
2.772317e-04
2.920136e-04
3.033946e-04
3.117942e-04
3.177376e-04
3.217693e-04
3.243915e-04
3.260264e-04
3.270035e-04
3.275633e-04
3.278706e-04
3.280322e-04
3.281137e-04
3.281530e-04
3.281711e-04
3.281792e-04
3.281826e-04
3.281839e-04
3.281845e-04
3.281847e-04
3.281847e-04
3.281847e-04
3.281848e-04
3.281848e-04
3.281848e-04
3.281848e-04
3.281848e-04
3.281848e-04
3.281848e-04
3.281848e-04
3.281848e-04
3.281848e-04
3.281848e-04
3.281848e-04
3.281848e-04
3.281848e-04
3.281848e-04
3.281848e-04
3.281848e-04
3.281848e-04
3.281848e-04
3.281848e-04
3.281848e-04
0.000000e+00
0.000000e+00
7.666697e-13
1.594102e-11
1.662985e-10
1.161294e-09
6.111187e-09
2.586866e-08
9.181753e-08
2.812647e-07
7.595811e-07
1.838140e-06
4.037475e-06
8.133308e-06
1.515472e-05
2.630608e-05
4.280244e-05
6.563936e-05
9.535103e-05
1.318260e-04
1.742383e-04
2.211142e-04
2.705161e-04
3.202933e-04
3.683464e-04
4.128573e-04
4.524559e-04
4.863068e-04
5.141168e-04
5.360718e-04
5.527235e-04
5.648534e-04
5.733370e-04
5.790321e-04
5.827006e-04
5.849676e-04
5.863110e-04
5.870744e-04
5.874902e-04
5.877072e-04
5.878157e-04
5.878677e-04
5.878916e-04
5.879020e-04
5.879064e-04
5.879082e-04
5.879088e-04
5.879091e-04
5.879092e-04
5.879092e-04
5.879092e-04
5.879092e-04
5.879092e-04
5.879092e-04
5.879092e-04
5.879092e-04
5.879092e-04
5.879092e-04
5.879092e-04
5.879092e-04
5.879092e-04
5.879092e-04
5.879092e-04
5.879092e-04
5.879092e-04
5.879092e-04
5.879092e-04
5.879092e-04
5.879092e-04
5.879092e-04
0.000000e+00
0.000000e+00
1.335051e-12
2.769735e-11
2.883095e-10
2.008995e-09
1.054984e-08
4.456479e-08
1.578499e-07
4.825158e-07
1.300097e-06
3.137881e-06
6.870205e-06
1.378321e-05
2.554784e-05
4.405509e-05
7.110963e-05
1.080429e-04
1.553611e-04
2.125466e-04
2.780756e-04
3.496297e-04
4.244181e-04
4.995169e-04
5.721625e-04
6.399730e-04
7.010993e-04
7.543117e-04
7.990245e-04
8.352599e-04
8.635546e-04
8.848232e-04
9.001994e-04
9.108826e-04
9.180113e-04
9.225776e-04
9.253838e-04
9.270379e-04
9.279727e-04
9.284791e-04
9.287419e-04
9.288725e-04
9.289347e-04
9.289631e-04
9.289755e-04
9.289806e-04
9.289827e-04
9.289835e-04
9.289838e-04
9.289839e-04
9.289839e-04
9.289839e-04
9.289839e-04
9.289839e-04
9.289839e-04
9.289839e-04
9.289839e-04
9.289839e-04
9.289839e-04
9.289839e-04
9.289839e-04
9.289839e-04
9.289839e-04
9.289839e-04
9.289839e-04
9.289839e-04
9.289839e-04
9.289839e-04
9.289839e-04
9.289839e-04
0.000000e+00
0.000000e+00
2.253707e-12
4.665488e-11
4.846046e-10
3.369591e-09
1.765623e-08
7.441395e-08
2.629205e-07
8.013739e-07
2.151508e-06
5.168579e-06
1.124547e-05
2.237188e-05
4.101270e-05
6.974735e-05
1.107169e-04
1.650522e-04
2.325107e-04
3.114708e-04
3.992604e-04
4.926535e-04
5.883386e-04
6.832388e-04
7.746695e-04
8.603882e-04
9.386068e-04
1.008011e-03
1.067795e-03
1.117687e-03
1.157944e-03
1.189291e-03
1.212807e-03
1.229780e-03
1.241554e-03
1.249396e-03
1.254409e-03
1.257481e-03
1.259287e-03
1.260304e-03
1.260853e-03
1.261137e-03
1.261277e-03
1.261343e-03
1.261374e-03
1.261387e-03
1.261392e-03
1.261394e-03
1.261395e-03
1.261395e-03
1.261396e-03
1.261396e-03
1.261396e-03
1.261396e-03
1.261396e-03
1.261396e-03
1.261396e-03
1.261396e-03
1.261396e-03
1.261396e-03
1.261396e-03
1.261396e-03
1.261396e-03
1.261396e-03
1.261396e-03
1.261396e-03
1.261396e-03
1.261396e-03
1.261396e-03
1.261396e-03
0.000000e+00
0.000000e+00
3.689134e-12
7.622516e-11
7.902715e-10
5.484526e-09
2.867981e-08
1.205933e-07
4.248597e-07
1.290019e-06
3.444932e-06
8.212903e-06
1.767788e-05
3.465524e-05
6.232255e-05
1.034964e-04
1.597753e-04
2.309382e-04
3.149153e-04
4.083399e-04
5.073892e-04
6.085345e-04
7.089571e-04
8.066029e-04
8.999977e-04
9.879929e-04
1.069569e-03
1.143764e-03
1.209718e-03
1.266791e-03
1.314695e-03
1.353570e-03
1.383996e-03
1.406916e-03
1.423509e-03
1.435041e-03
1.442727e-03
1.447639e-03
1.450646e-03
1.452410e-03
1.453401e-03
1.453933e-03
1.454208e-03
1.454343e-03
1.454406e-03
1.454435e-03
1.454448e-03
1.454453e-03
1.454455e-03
1.454456e-03
1.454456e-03
1.454456e-03
1.454456e-03
1.454456e-03
1.454456e-03
1.454456e-03
1.454456e-03
1.454456e-03
1.454456e-03
1.454456e-03
1.454456e-03
1.454456e-03
1.454456e-03
1.454456e-03
1.454456e-03
1.454456e-03
1.454456e-03
1.454456e-03
1.454456e-03
1.454456e-03
0.000000e+00
0.000000e+00
5.856986e-12
1.208492e-10
1.251239e-09
8.671444e-09
4.526904e-08
1.899184e-07
6.668639e-07
2.014390e-06
5.336521e-06
1.257077e-05
2.659641e-05
5.093819e-05
8.892839e-05
1.425316e-04
2.114007e-04
2.927392e-04
3.820940e-04
4.746554e-04
5.664330e-04
6.548855e-04
7.389371e-04
8.185710e-04
8.942634e-04
9.664719e-04
1.035299e-03
1.100372e-03
1.160910e-03
1.215925e-03
1.264478e-03
1.305902e-03
1.339957e-03
1.366870e-03
1.387283e-03
1.402127e-03
1.412466e-03
1.419362e-03
1.423764e-03
1.426454e-03
1.428026e-03
1.428906e-03
1.429377e-03
1.429618e-03
1.429736e-03
1.429791e-03
1.429816e-03
1.429827e-03
1.429831e-03
1.429833e-03
1.429833e-03
1.429834e-03
1.429834e-03
1.429834e-03
1.429834e-03
1.429834e-03
1.429834e-03
1.429834e-03
1.429834e-03
1.429834e-03
1.429834e-03
1.429834e-03
1.429834e-03
1.429834e-03
1.429834e-03
1.429834e-03
1.429834e-03
1.429834e-03
1.429834e-03
1.429834e-03
0.000000e+00
0.000000e+00
9.020236e-12
1.860060e-10
1.924878e-09
1.333142e-08
6.951734e-08
2.910029e-07
1.017548e-06
3.051151e-06
7.986158e-06
1.847035e-05
3.808149e-05
7.051373e-05
1.181507e-04
1.806990e-04
2.547756e-04
3.348127e-04
4.147949e-04
4.899229e-04
5.575409e-04
6.172021e-04
6.701312e-04
7.184445e-04
7.644006e-04
8.098297e-04
8.557912e-04
9.024596e-04
9.492070e-04
9.948334e-04
1.037878e-03
1.076937e-03
1.110931e-03
1.139258e-03
1.161837e-03
1.179043e-03
1.191575e-03
1.200299e-03
1.206103e-03
1.209793e-03
1.212036e-03
1.213340e-03
1.214064e-03
1.214448e-03
1.214644e-03
1.214739e-03
1.214783e-03
1.214803e-03
1.214811e-03
1.214814e-03
1.214816e-03
1.214816e-03
1.214816e-03
1.214816e-03
1.214816e-03
1.214816e-03
1.214816e-03
1.214816e-03
1.214816e-03
1.214816e-03
1.214816e-03
1.214816e-03
1.214816e-03
1.214816e-03
1.214816e-03
1.214816e-03
1.214816e-03
1.214816e-03
1.214816e-03
1.214816e-03
0.000000e+00
0.000000e+00
1.347703e-11
2.780554e-10
2.879326e-09
1.994941e-08
1.039713e-07
4.341591e-07
1.509303e-06
4.476124e-06
1.150530e-05
2.590595e-05
5.152523e-05
9.126649e-05
1.453273e-04
2.103184e-04
2.800120e-04
3.473443e-04
4.065401e-04
4.543994e-04
4.904920e-04
5.165737e-04
5.356927e-04
5.513311e-04
5.667341e-04
5.844551e-04
6.060957e-04
6.322156e-04
6.623965e-04
6.954371e-04
7.296448e-04
7.631708e-04
7.943255e-04
8.218184e-04
8.448882e-04
8.633149e-04
8.773368e-04
8.875089e-04
8.945481e-04
8.991970e-04
9.021285e-04
9.038940e-04
9.049099e-04
9.054685e-04
9.057622e-04
9.059097e-04
9.059806e-04
9.060131e-04
9.060274e-04
9.060334e-04
9.060358e-04
9.060367e-04
9.060371e-04
9.060372e-04
9.060372e-04
9.060372e-04
9.060372e-04
9.060372e-04
9.060372e-04
9.060372e-04
9.060372e-04
9.060372e-04
9.060372e-04
9.060372e-04
9.060372e-04
9.060372e-04
9.060372e-04
9.060372e-04
9.060372e-04
9.060372e-04
0.000000e+00
0.000000e+00
1.953461e-11
4.038536e-10
4.190988e-09
2.908272e-08
1.515509e-07
6.306400e-07
2.172804e-06
6.336996e-06
1.586569e-05
3.444601e-05
6.545979e-05
1.100222e-04
1.655275e-04
2.258929e-04
2.835023e-04
3.316721e-04
3.663588e-04
3.866052e-04
3.940055e-04
3.917571e-04
3.837425e-04
3.738380e-04
3.654599e-04
3.612860e-04
3.630907e-04
3.716704e-04
3.868600e-04
4.076531e-04
4.324223e-04
4.592098e-04
4.860419e-04
5.112060e-04
5.334449e-04
5.520408e-04
5.667938e-04
5.779192e-04
5.859053e-04
5.913676e-04
5.949305e-04
5.971482e-04
5.984662e-04
5.992143e-04
5.996201e-04
5.998304e-04
5.999347e-04
5.999840e-04
6.000064e-04
6.000161e-04
6.000201e-04
6.000217e-04
6.000223e-04
6.000225e-04
6.000226e-04
6.000226e-04
6.000226e-04
6.000226e-04
6.000226e-04
6.000226e-04
6.000226e-04
6.000226e-04
6.000226e-04
6.000226e-04
6.000226e-04
6.000226e-04
6.000226e-04
6.000226e-04
6.000226e-04
6.000226e-04
0.000000e+00
0.000000e+00
2.746659e-11
5.700924e-10
5.939457e-09
4.132661e-08
2.152631e-07
8.904214e-07
3.024544e-06
8.607228e-06
2.079935e-05
4.317050e-05
7.789118e-05
1.238172e-04
1.759490e-04
2.268714e-04
2.692887e-04
2.981613e-04
3.115761e-04
3.104297e-04
2.975087e-04
2.765158e-04
2.513321e-04
2.255667e-04
2.023176e-04
1.840419e-04
1.724667e-04
1.685170e-04
1.722840e-04
1.830633e-04
1.994866e-04
2.197430e-04
2.418535e-04
2.639493e-04
2.844990e-04
3.024463e-04
3.172462e-04
3.288100e-04
3.373915e-04
3.434500e-04
3.475246e-04
3.501374e-04
3.517361e-04
3.526702e-04
3.531914e-04
3.534694e-04
3.536112e-04
3.536802e-04
3.537124e-04
3.537268e-04
3.537329e-04
3.537354e-04
3.537363e-04
3.537367e-04
3.537368e-04
3.537369e-04
3.537369e-04
3.537369e-04
3.537369e-04
3.537369e-04
3.537369e-04
3.537369e-04
3.537369e-04
3.537369e-04
3.537369e-04
3.537369e-04
3.537369e-04
3.537369e-04
3.537369e-04
3.537369e-04
0.000000e+00
0.000000e+00
3.745336e-11
7.823242e-10
8.198438e-09
5.723208e-08
2.974774e-07
1.217411e-06
4.046546e-06
1.113918e-05
2.578225e-05
5.091375e-05
8.711839e-05
1.312839e-04
1.771172e-04
2.172937e-04
2.458576e-04
2.596367e-04
2.583750e-04
2.440161e-04
2.197303e-04
1.890925e-04
1.555563e-04
1.222004e-04
9.163971e-05
6.599464e-05
4.684952e-05
3.518420e-05
3.130468e-05
3.481732e-05
4.468370e-05
5.936850e-05
7.706181e-05
9.593312e-05
1.143652e-04
1.311230e-04
1.454332e-04
1.569737e-04
1.657940e-04
1.721982e-04
1.766233e-04
1.795367e-04
1.813662e-04
1.824629e-04
1.830907e-04
1.834342e-04
1.836138e-04
1.837036e-04
1.837465e-04
1.837662e-04
1.837748e-04
1.837784e-04
1.837798e-04
1.837804e-04
1.837806e-04
1.837806e-04
1.837807e-04
1.837807e-04
1.837807e-04
1.837807e-04
1.837807e-04
1.837807e-04
1.837807e-04
1.837807e-04
1.837807e-04
1.837807e-04
1.837807e-04
1.837807e-04
1.837807e-04
1.837807e-04
0.000000e+00
0.000000e+00
4.950883e-11
1.043619e-09
1.101947e-08
7.712672e-08
3.984468e-07
1.601932e-06
5.167167e-06
1.366316e-05
3.018010e-05
5.672779e-05
9.244282e-05
1.330274e-04
1.720067e-04
2.029739e-04
2.214693e-04
2.257405e-04
2.164682e-04
1.959578e-04
1.672738e-04
1.335876e-04
9.781448e-05
6.248616e-05
2.975287e-05
1.410015e-06
-2.111512e-05
-3.683025e-05
-4.527007e-05
-4.656468e-05
-4.144042e-05
-3.113077e-05
-1.720497e-05
-1.347333e-06
1.486580e-05
3.014610e-05
4.359959e-05
5.475006e-05
6.349114e-05
6.999261e-05
7.459070e-05
7.768779e-05
7.967688e-05
8.089610e-05
8.160986e-05
8.200917e-05
8.222274e-05
8.233199e-05
8.238546e-05
8.241049e-05
8.242170e-05
8.242651e-05
8.242848e-05
8.242926e-05
8.242955e-05
8.242965e-05
8.242969e-05
8.242970e-05
8.242971e-05
8.242971e-05
8.242971e-05
8.242971e-05
8.242971e-05
8.242971e-05
8.242971e-05
8.242971e-05
8.242971e-05
8.242971e-05
8.242971e-05
8.242971e-05
0.000000e+00
0.000000e+00
6.339961e-11
1.352699e-09
1.440197e-08
1.007738e-07
5.140803e-07
2.014109e-06
6.262962e-06
1.585999e-05
3.347360e-05
6.019249e-05
9.418286e-05
1.307741e-04
1.639908e-04
1.885181e-04
2.010574e-04
2.006933e-04
1.884839e-04
1.667067e-04
1.381190e-04
1.054341e-04
7.106163e-05
3.705812e-05
5.183774e-06
-2.303668e-05
-4.631199e-05
-6.365258e-05
-7.447808e-05
-7.871326e-05
-7.682523e-05
-6.977569e-05
-5.888942e-05
-4.566549e-05
-3.157230e-05
-1.786957e-05
-5.489700e-06
5.007425e-06
1.341106e-05
1.978752e-05
2.438526e-05
2.754152e-05
2.960722e-05
3.089751e-05
3.166733e-05
3.210632e-05
3.234571e-05
3.247060e-05
3.253295e-05
3.256274e-05
3.257637e-05
3.258234e-05
3.258485e-05
3.258585e-05
3.258624e-05
3.258638e-05
3.258643e-05
3.258645e-05
3.258645e-05
3.258645e-05
3.258645e-05
3.258645e-05
3.258645e-05
3.258645e-05
3.258645e-05
3.258645e-05
3.258645e-05
3.258645e-05
3.258645e-05
3.258645e-05
0.000000e+00
0.000000e+00
7.856419e-11
1.701201e-09
1.824117e-08
1.268821e-07
6.341236e-07
2.405111e-06
7.188111e-06
1.745296e-05
3.537180e-05
6.133930e-05
9.308903e-05
1.261264e-04
1.551976e-04
1.758944e-04
1.856570e-04
1.839700e-04
1.719551e-04
1.517017e-04
1.256246e-04
9.602260e-05
6.488081e-05
3.386860e-05
4.431170e-06
-2.212693e-05
-4.462979e-05
-6.210024e-05
-7.387872e-05
-7.973780e-05
-7.994317e-05
-7.523319e-05
-6.671582e-05
-5.570538e-05
-4.353633e-05
-3.139393e-05
-2.019333e-05
-1.052322e-05
-2.652758e-06
3.413439e-06
7.854616e-06
1.094969e-05
1.300610e-05
1.431025e-05
1.510042e-05
1.555813e-05
1.581177e-05
1.594627e-05
1.601456e-05
1.604776e-05
1.606322e-05
1.607012e-05
1.607307e-05
1.607427e-05
1.607475e-05
1.607492e-05
1.607499e-05
1.607501e-05
1.607502e-05
1.607502e-05
1.607502e-05
1.607502e-05