# vtk DataFile Version 3.0
Resultado Projeto 3
ASCII
DATASET STRUCTURED_GRID
DIMENSIONS 140 60 1 
POINTS 8400 double
0.000000e+00 0.000000e+00 0.000000e+00
2.517986e-02 0.000000e+00 0.000000e+00
5.035971e-02 0.000000e+00 0.000000e+00
7.553957e-02 0.000000e+00 0.000000e+00
1.007194e-01 0.000000e+00 0.000000e+00
1.258993e-01 0.000000e+00 0.000000e+00
1.510791e-01 0.000000e+00 0.000000e+00
1.762590e-01 0.000000e+00 0.000000e+00
2.014388e-01 0.000000e+00 0.000000e+00
2.266187e-01 0.000000e+00 0.000000e+00
2.517986e-01 0.000000e+00 0.000000e+00
2.769784e-01 0.000000e+00 0.000000e+00
3.021583e-01 0.000000e+00 0.000000e+00
3.273381e-01 0.000000e+00 0.000000e+00
3.525180e-01 0.000000e+00 0.000000e+00
3.776978e-01 0.000000e+00 0.000000e+00
4.028777e-01 0.000000e+00 0.000000e+00
4.280576e-01 0.000000e+00 0.000000e+00
4.532374e-01 0.000000e+00 0.000000e+00
4.784173e-01 0.000000e+00 0.000000e+00
5.035971e-01 0.000000e+00 0.000000e+00
5.287770e-01 0.000000e+00 0.000000e+00
5.539568e-01 0.000000e+00 0.000000e+00
5.791367e-01 0.000000e+00 0.000000e+00
6.043165e-01 0.000000e+00 0.000000e+00
6.294964e-01 0.000000e+00 0.000000e+00
6.546763e-01 0.000000e+00 0.000000e+00
6.798561e-01 0.000000e+00 0.000000e+00
7.050360e-01 0.000000e+00 0.000000e+00
7.302158e-01 0.000000e+00 0.000000e+00
7.553957e-01 0.000000e+00 0.000000e+00
7.805755e-01 0.000000e+00 0.000000e+00
8.057554e-01 0.000000e+00 0.000000e+00
8.309353e-01 0.000000e+00 0.000000e+00
8.561151e-01 0.000000e+00 0.000000e+00
8.812950e-01 0.000000e+00 0.000000e+00
9.064748e-01 0.000000e+00 0.000000e+00
9.316547e-01 0.000000e+00 0.000000e+00
9.568345e-01 0.000000e+00 0.000000e+00
9.820144e-01 0.000000e+00 0.000000e+00
1.007194e+00 0.000000e+00 0.000000e+00
1.032374e+00 0.000000e+00 0.000000e+00
1.057554e+00 0.000000e+00 0.000000e+00
1.082734e+00 0.000000e+00 0.000000e+00
1.107914e+00 0.000000e+00 0.000000e+00
1.133094e+00 0.000000e+00 0.000000e+00
1.158273e+00 0.000000e+00 0.000000e+00
1.183453e+00 0.000000e+00 0.000000e+00
1.208633e+00 0.000000e+00 0.000000e+00
1.233813e+00 0.000000e+00 0.000000e+00
1.258993e+00 0.000000e+00 0.000000e+00
1.284173e+00 0.000000e+00 0.000000e+00
1.309353e+00 0.000000e+00 0.000000e+00
1.334532e+00 0.000000e+00 0.000000e+00
1.359712e+00 0.000000e+00 0.000000e+00
1.384892e+00 0.000000e+00 0.000000e+00
1.410072e+00 0.000000e+00 0.000000e+00
1.435252e+00 0.000000e+00 0.000000e+00
1.460432e+00 0.000000e+00 0.000000e+00
1.485612e+00 0.000000e+00 0.000000e+00
1.510791e+00 0.000000e+00 0.000000e+00
1.535971e+00 0.000000e+00 0.000000e+00
1.561151e+00 0.000000e+00 0.000000e+00
1.586331e+00 0.000000e+00 0.000000e+00
1.611511e+00 0.000000e+00 0.000000e+00
1.636691e+00 0.000000e+00 0.000000e+00
1.661871e+00 0.000000e+00 0.000000e+00
1.687050e+00 0.000000e+00 0.000000e+00
1.712230e+00 0.000000e+00 0.000000e+00
1.737410e+00 0.000000e+00 0.000000e+00
1.762590e+00 0.000000e+00 0.000000e+00
1.787770e+00 0.000000e+00 0.000000e+00
1.812950e+00 0.000000e+00 0.000000e+00
1.838129e+00 0.000000e+00 0.000000e+00
1.863309e+00 0.000000e+00 0.000000e+00
1.888489e+00 0.000000e+00 0.000000e+00
1.913669e+00 0.000000e+00 0.000000e+00
1.938849e+00 0.000000e+00 0.000000e+00
1.964029e+00 0.000000e+00 0.000000e+00
1.989209e+00 0.000000e+00 0.000000e+00
2.014388e+00 0.000000e+00 0.000000e+00
2.039568e+00 0.000000e+00 0.000000e+00
2.064748e+00 0.000000e+00 0.000000e+00
2.089928e+00 0.000000e+00 0.000000e+00
2.115108e+00 0.000000e+00 0.000000e+00
2.140288e+00 0.000000e+00 0.000000e+00
2.165468e+00 0.000000e+00 0.000000e+00
2.190647e+00 0.000000e+00 0.000000e+00
2.215827e+00 0.000000e+00 0.000000e+00
2.241007e+00 0.000000e+00 0.000000e+00
2.266187e+00 0.000000e+00 0.000000e+00
2.291367e+00 0.000000e+00 0.000000e+00
2.316547e+00 0.000000e+00 0.000000e+00
2.341727e+00 0.000000e+00 0.000000e+00
2.366906e+00 0.000000e+00 0.000000e+00
2.392086e+00 0.000000e+00 0.000000e+00
2.417266e+00 0.000000e+00 0.000000e+00
2.442446e+00 0.000000e+00 0.000000e+00
2.467626e+00 0.000000e+00 0.000000e+00
2.492806e+00 0.000000e+00 0.000000e+00
2.517986e+00 0.000000e+00 0.000000e+00
2.543165e+00 0.000000e+00 0.000000e+00
2.568345e+00 0.000000e+00 0.000000e+00
2.593525e+00 0.000000e+00 0.000000e+00
2.618705e+00 0.000000e+00 0.000000e+00
2.643885e+00 0.000000e+00 0.000000e+00
2.669065e+00 0.000000e+00 0.000000e+00
2.694245e+00 0.000000e+00 0.000000e+00
2.719424e+00 0.000000e+00 0.000000e+00
2.744604e+00 0.000000e+00 0.000000e+00
2.769784e+00 0.000000e+00 0.000000e+00
2.794964e+00 0.000000e+00 0.000000e+00
2.820144e+00 0.000000e+00 0.000000e+00
2.845324e+00 0.000000e+00 0.000000e+00
2.870504e+00 0.000000e+00 0.000000e+00
2.895683e+00 0.000000e+00 0.000000e+00
2.920863e+00 0.000000e+00 0.000000e+00
2.946043e+00 0.000000e+00 0.000000e+00
2.971223e+00 0.000000e+00 0.000000e+00
2.996403e+00 0.000000e+00 0.000000e+00
3.021583e+00 0.000000e+00 0.000000e+00
3.046763e+00 0.000000e+00 0.000000e+00
3.071942e+00 0.000000e+00 0.000000e+00
3.097122e+00 0.000000e+00 0.000000e+00
3.122302e+00 0.000000e+00 0.000000e+00
3.147482e+00 0.000000e+00 0.000000e+00
3.172662e+00 0.000000e+00 0.000000e+00
3.197842e+00 0.000000e+00 0.000000e+00
3.223022e+00 0.000000e+00 0.000000e+00
3.248201e+00 0.000000e+00 0.000000e+00
3.273381e+00 0.000000e+00 0.000000e+00
3.298561e+00 0.000000e+00 0.000000e+00
3.323741e+00 0.000000e+00 0.000000e+00
3.348921e+00 0.000000e+00 0.000000e+00
3.374101e+00 0.000000e+00 0.000000e+00
3.399281e+00 0.000000e+00 0.000000e+00
3.424460e+00 0.000000e+00 0.000000e+00
3.449640e+00 0.000000e+00 0.000000e+00
3.474820e+00 0.000000e+00 0.000000e+00
3.500000e+00 0.000000e+00 0.000000e+00
0.000000e+00 1.694915e-02 0.000000e+00
2.517986e-02 1.694915e-02 0.000000e+00
5.035971e-02 1.694915e-02 0.000000e+00
7.553957e-02 1.694915e-02 0.000000e+00
1.007194e-01 1.694915e-02 0.000000e+00
1.258993e-01 1.694915e-02 0.000000e+00
1.510791e-01 1.694915e-02 0.000000e+00
1.762590e-01 1.694915e-02 0.000000e+00
2.014388e-01 1.694915e-02 0.000000e+00
2.266187e-01 1.694915e-02 0.000000e+00
2.517986e-01 1.694915e-02 0.000000e+00
2.769784e-01 1.694915e-02 0.000000e+00
3.021583e-01 1.694915e-02 0.000000e+00
3.273381e-01 1.694915e-02 0.000000e+00
3.525180e-01 1.694915e-02 0.000000e+00
3.776978e-01 1.694915e-02 0.000000e+00
4.028777e-01 1.694915e-02 0.000000e+00
4.280576e-01 1.694915e-02 0.000000e+00
4.532374e-01 1.694915e-02 0.000000e+00
4.784173e-01 1.694915e-02 0.000000e+00
5.035971e-01 1.694915e-02 0.000000e+00
5.287770e-01 1.694915e-02 0.000000e+00
5.539568e-01 1.694915e-02 0.000000e+00
5.791367e-01 1.694915e-02 0.000000e+00
6.043165e-01 1.694915e-02 0.000000e+00
6.294964e-01 1.694915e-02 0.000000e+00
6.546763e-01 1.694915e-02 0.000000e+00
6.798561e-01 1.694915e-02 0.000000e+00
7.050360e-01 1.694915e-02 0.000000e+00
7.302158e-01 1.694915e-02 0.000000e+00
7.553957e-01 1.694915e-02 0.000000e+00
7.805755e-01 1.694915e-02 0.000000e+00
8.057554e-01 1.694915e-02 0.000000e+00
8.309353e-01 1.694915e-02 0.000000e+00
8.561151e-01 1.694915e-02 0.000000e+00
8.812950e-01 1.694915e-02 0.000000e+00
9.064748e-01 1.694915e-02 0.000000e+00
9.316547e-01 1.694915e-02 0.000000e+00
9.568345e-01 1.694915e-02 0.000000e+00
9.820144e-01 1.694915e-02 0.000000e+00
1.007194e+00 1.694915e-02 0.000000e+00
1.032374e+00 1.694915e-02 0.000000e+00
1.057554e+00 1.694915e-02 0.000000e+00
1.082734e+00 1.694915e-02 0.000000e+00
1.107914e+00 1.694915e-02 0.000000e+00
1.133094e+00 1.694915e-02 0.000000e+00
1.158273e+00 1.694915e-02 0.000000e+00
1.183453e+00 1.694915e-02 0.000000e+00
1.208633e+00 1.694915e-02 0.000000e+00
1.233813e+00 1.694915e-02 0.000000e+00
1.258993e+00 1.694915e-02 0.000000e+00
1.284173e+00 1.694915e-02 0.000000e+00
1.309353e+00 1.694915e-02 0.000000e+00
1.334532e+00 1.694915e-02 0.000000e+00
1.359712e+00 1.694915e-02 0.000000e+00
1.384892e+00 1.694915e-02 0.000000e+00
1.410072e+00 1.694915e-02 0.000000e+00
1.435252e+00 1.694915e-02 0.000000e+00
1.460432e+00 1.694915e-02 0.000000e+00
1.485612e+00 1.694915e-02 0.000000e+00
1.510791e+00 1.694915e-02 0.000000e+00
1.535971e+00 1.694915e-02 0.000000e+00
1.561151e+00 1.694915e-02 0.000000e+00
1.586331e+00 1.694915e-02 0.000000e+00
1.611511e+00 1.694915e-02 0.000000e+00
1.636691e+00 1.694915e-02 0.000000e+00
1.661871e+00 1.694915e-02 0.000000e+00
1.687050e+00 1.694915e-02 0.000000e+00
1.712230e+00 1.694915e-02 0.000000e+00
1.737410e+00 1.694915e-02 0.000000e+00
1.762590e+00 1.694915e-02 0.000000e+00
1.787770e+00 1.694915e-02 0.000000e+00
1.812950e+00 1.694915e-02 0.000000e+00
1.838129e+00 1.694915e-02 0.000000e+00
1.863309e+00 1.694915e-02 0.000000e+00
1.888489e+00 1.694915e-02 0.000000e+00
1.913669e+00 1.694915e-02 0.000000e+00
1.938849e+00 1.694915e-02 0.000000e+00
1.964029e+00 1.694915e-02 0.000000e+00
1.989209e+00 1.694915e-02 0.000000e+00
2.014388e+00 1.694915e-02 0.000000e+00
2.039568e+00 1.694915e-02 0.000000e+00
2.064748e+00 1.694915e-02 0.000000e+00
2.089928e+00 1.694915e-02 0.000000e+00
2.115108e+00 1.694915e-02 0.000000e+00
2.140288e+00 1.694915e-02 0.000000e+00
2.165468e+00 1.694915e-02 0.000000e+00
2.190647e+00 1.694915e-02 0.000000e+00
2.215827e+00 1.694915e-02 0.000000e+00
2.241007e+00 1.694915e-02 0.000000e+00
2.266187e+00 1.694915e-02 0.000000e+00
2.291367e+00 1.694915e-02 0.000000e+00
2.316547e+00 1.694915e-02 0.000000e+00
2.341727e+00 1.694915e-02 0.000000e+00
2.366906e+00 1.694915e-02 0.000000e+00
2.392086e+00 1.694915e-02 0.000000e+00
2.417266e+00 1.694915e-02 0.000000e+00
2.442446e+00 1.694915e-02 0.000000e+00
2.467626e+00 1.694915e-02 0.000000e+00
2.492806e+00 1.694915e-02 0.000000e+00
2.517986e+00 1.694915e-02 0.000000e+00
2.543165e+00 1.694915e-02 0.000000e+00
2.568345e+00 1.694915e-02 0.000000e+00
2.593525e+00 1.694915e-02 0.000000e+00
2.618705e+00 1.694915e-02 0.000000e+00
2.643885e+00 1.694915e-02 0.000000e+00
2.669065e+00 1.694915e-02 0.000000e+00
2.694245e+00 1.694915e-02 0.000000e+00
2.719424e+00 1.694915e-02 0.000000e+00
2.744604e+00 1.694915e-02 0.000000e+00
2.769784e+00 1.694915e-02 0.000000e+00
2.794964e+00 1.694915e-02 0.000000e+00
2.820144e+00 1.694915e-02 0.000000e+00
[...]
POINT_DATA 8400
SCALARS RES_Cont double
LOOKUP_TABLE default
0.000000e+00
0.000000e+00
0.000000e+00
0.000000e+00
0.000000e+00
0.000000e+00
0.000000e+00
0.000000e+00
0.000000e+00
0.000000e+00
0.000000e+00
0.000000e+00
0.000000e+00
0.000000e+00
0.000000e+00
0.000000e+00
0.000000e+00
0.000000e+00
0.000000e+00
0.000000e+00
0.000000e+00
0.000000e+00
0.000000e+00
0.000000e+00
0.000000e+00
0.000000e+00
0.000000e+00
0.000000e+00
0.000000e+00
0.000000e+00
0.000000e+00
0.000000e+00
0.000000e+00
0.000000e+00
0.000000e+00
0.000000e+00
0.000000e+00
0.000000e+00
0.000000e+00
0.000000e+00
0.000000e+00
0.000000e+00
0.000000e+00
0.000000e+00
0.000000e+00
0.000000e+00
0.000000e+00
0.000000e+00
0.000000e+00
0.000000e+00
0.000000e+00
0.000000e+00
0.000000e+00
0.000000e+00
0.000000e+00
0.000000e+00
0.000000e+00
0.000000e+00
0.000000e+00
0.000000e+00
0.000000e+00
0.000000e+00
0.000000e+00
0.000000e+00
0.000000e+00
0.000000e+00
0.000000e+00
0.000000e+00
0.000000e+00
0.000000e+00
0.000000e+00
0.000000e+00
0.000000e+00
0.000000e+00
0.000000e+00
0.000000e+00
0.000000e+00
0.000000e+00
0.000000e+00
0.000000e+00
0.000000e+00
0.000000e+00
0.000000e+00
0.000000e+00
0.000000e+00
0.000000e+00
0.000000e+00
0.000000e+00
0.000000e+00
0.000000e+00
0.000000e+00
0.000000e+00
0.000000e+00
0.000000e+00
0.000000e+00
0.000000e+00
0.000000e+00
0.000000e+00
0.000000e+00
0.000000e+00
0.000000e+00
0.000000e+00
0.000000e+00
0.000000e+00
0.000000e+00
0.000000e+00
0.000000e+00
0.000000e+00
0.000000e+00
0.000000e+00
0.000000e+00
0.000000e+00
0.000000e+00
0.000000e+00
0.000000e+00
0.000000e+00
0.000000e+00
0.000000e+00
0.000000e+00
0.000000e+00
0.000000e+00
0.000000e+00
0.000000e+00
0.000000e+00
0.000000e+00
0.000000e+00
0.000000e+00
0.000000e+00
0.000000e+00
0.000000e+00
0.000000e+00
0.000000e+00
0.000000e+00
0.000000e+00
0.000000e+00
0.000000e+00
0.000000e+00
0.000000e+00
0.000000e+00
0.000000e+00
0.000000e+00
-0.000000e+00
-0.000000e+00
-0.000000e+00
-0.000000e+00
-0.000000e+00
-0.000000e+00
3.951571e-19
-2.766100e-18
2.082467e-18
-9.089700e-20
-4.179766e-18
-8.663792e-19
2.416391e-18
2.578590e-19
1.793992e-18
-1.484016e-18
-2.249020e-18
1.055251e-18
1.909380e-18
-1.665693e-18
4.132212e-18
8.375265e-19
1.456216e-18
-3.120889e-18
3.624877e-19
4.338613e-18
-2.664903e-18
1.595629e-19
1.747706e-18
1.664343e-18
-2.373046e-18
-8.182680e-19
3.249507e-18
4.348978e-18
6.850600e-20
-3.599504e-19
2.530652e-18
4.542930e-18
9.264816e-19
4.364301e-18
1.419136e-18
4.115838e-18
8.770512e-18
2.649288e-19
4.768759e-18
-1.230268e-18
2.957424e-18
-1.783568e-18
-4.575000e-18
-3.689562e-18
-2.623463e-18
-3.350477e-18
-5.168903e-18
-8.895329e-21
-1.110759e-18
-3.342048e-18
-1.327061e-17
-3.918595e-18
4.051714e-18
-7.089520e-18
-4.314309e-18
-4.668118e-17
-2.089952e-16
-8.704828e-16
-2.836726e-15
-3.440612e-15
3.784877e-14
3.241825e-13
1.409565e-12
4.592575e-12
1.303631e-11
3.435129e-11
8.678511e-11
2.134279e-10
5.130141e-10
1.204539e-09
2.757111e-09
6.138002e-09
1.326329e-08
2.777865e-08
5.634849e-08
1.106762e-07
2.104876e-07
3.876360e-07
6.912721e-07
1.193606e-06
1.995157e-06
3.227626e-06
5.051800e-06
7.647711e-06
1.119492e-05
1.584282e-05
2.167404e-05
2.866765e-05
3.667143e-05
4.539235e-05
5.441095e-05
6.321913e-05
7.127445e-05
7.805978e-05
8.313699e-05
8.618676e-05
8.703188e-05
8.564621e-05
8.215377e-05
7.682246e-05
7.005396e-05
6.236811e-05
5.437644e-05
4.673848e-05
4.009712e-05
3.499534e-05
3.178654e-05
3.055954e-05
3.110290e-05
3.292722e-05
3.534893e-05
3.761989e-05
3.907209e-05
3.924216e-05
3.794741e-05
3.529942e-05
3.165651e-05
2.752937e-05
2.346206e-05
1.991445e-05
1.717156e-05
1.529926e-05
1.415529e-05
1.344976e-05
1.283640e-05
1.200778e-05
1.076842e-05
9.068826e-06
6.995972e-06
4.729053e-06
2.477500e-06
4.210062e-07
0.000000e+00
0.000000e+00
-0.000000e+00
-0.000000e+00
-0.000000e+00
-0.000000e+00
-0.000000e+00
3.951571e-19
-5.927357e-19
1.778207e-18
7.903142e-19
-4.164934e-18
-6.994172e-19
5.684329e-18
1.580628e-18
-2.141795e-18
-1.059195e-18
-1.647168e-18
3.473138e-18
-2.332029e-18
-2.948863e-18
1.142524e-19
-1.188830e-18
-6.450608e-19
-1.506236e-18
1.050624e-18
-3.108179e-19
-1.920235e-18
-4.955105e-19
1.166480e-18
3.671948e-19
-3.355834e-18
-1.155415e-18
1.035842e-18
2.112283e-18
2.620430e-18
1.400238e-18
-5.270686e-19
-2.740523e-18
-3.314508e-18
1.882661e-18
4.323399e-18
3.792345e-18
4.002617e-18
1.170439e-18
-7.119185e-18
-2.498144e-18
-2.691404e-18
-8.158427e-18
1.085052e-18
2.671808e-18
3.087481e-18
-1.043989e-18
-1.432873e-18
-2.695143e-18
4.827289e-18
3.636731e-18
2.893237e-18
1.284518e-17
1.396552e-17
-1.339579e-18
3.738092e-18
-4.020276e-19
-5.855490e-17
-2.855588e-16
-8.070410e-16
2.051823e-16
2.039332e-14
1.295618e-13
4.717809e-13
1.361026e-12
3.691812e-12
1.022950e-11
2.879063e-11
7.836809e-11
2.020382e-10
4.968360e-10
1.177114e-09
2.700926e-09
6.012738e-09
1.298823e-08
2.720976e-08
5.525054e-08
1.086881e-07
2.070752e-07
3.820257e-07
6.823618e-07
1.179866e-06
1.974555e-06
3.197617e-06
5.009443e-06
7.589929e-06
1.111892e-05
1.574659e-05
2.155689e-05
2.853060e-05
3.651743e-05
4.522619e-05
5.423886e-05
6.304822e-05
7.111198e-05
7.791257e-05
8.301101e-05
8.608704e-05
8.696267e-05
8.561133e-05
8.215696e-05
7.686747e-05
7.014438e-05
6.250661e-05
5.456353e-05
4.697115e-05
4.036752e-05
3.529023e-05
3.208793e-05
3.084682e-05
3.135614e-05
3.313103e-05
3.549587e-05
3.771242e-05
3.912243e-05
3.927008e-05
3.797640e-05
3.535193e-05
3.174943e-05
2.767057e-05
2.364889e-05
2.013463e-05
1.740642e-05
1.552863e-05
1.436268e-05
1.362651e-05
1.298352e-05
1.213491e-05
1.089050e-05
9.201302e-06
7.150158e-06
4.908890e-06
2.678537e-06
6.317286e-07
0.000000e+00
0.000000e+00
-0.000000e+00
-0.000000e+00
-0.000000e+00
-0.000000e+00
3.951571e-19
-7.903142e-19
3.860674e-18
3.465517e-18
1.669620e-19
-1.459115e-18
6.233522e-19
1.808823e-18
-3.236369e-18
-2.306852e-18
-5.389186e-18
-2.049945e-18
1.842022e-18
-1.870616e-18
-2.390579e-18
2.077771e-18
1.190351e-18
-6.458532e-20
2.665746e-18
3.300521e-18
-3.529972e-19
-3.812001e-18
-5.929693e-18
3.142990e-18
2.466719e-18
2.774320e-18
4.709713e-18
3.609116e-18
2.826901e-18
-2.610998e-18
-2.159605e-18
-1.330675e-18
6.230882e-18
3.837747e-18
1.958387e-18
-1.949945e-18
1.229769e-18
-4.785109e-18
-4.280040e-19
-8.895427e-18
1.963776e-18
-1.336139e-18
-1.045809e-17
-6.294935e-18
8.450892e-18
6.709542e-18
6.494506e-18
1.274956e-18
3.302737e-18
2.641297e-18
3.226397e-18
-5.948746e-18
-1.930523e-18
1.823250e-17
9.982353e-18
-1.308673e-17
-2.614540e-17
-9.294853e-17
-2.198858e-16
6.867872e-16
1.098822e-14
5.906680e-14
1.966172e-13
5.261069e-13
1.291907e-12
3.109744e-12
7.720297e-12
2.065183e-11
5.920681e-11
1.689790e-10
4.507985e-10
1.115623e-09
2.605437e-09
5.827007e-09
1.258415e-08
2.634339e-08
5.351209e-08
1.054438e-07
2.013947e-07
3.725857e-07
6.673238e-07
1.156741e-06
1.940097e-06
3.147817e-06
4.939701e-06
7.495478e-06
1.099547e-05
1.559118e-05
2.136868e-05
2.831156e-05
3.627254e-05
4.496326e-05
5.396785e-05
6.278018e-05
7.085802e-05
7.768294e-05
8.281459e-05
8.593127e-05
8.685395e-05
8.555555e-05
8.216000e-05
7.693535e-05
7.028273e-05
6.271940e-05
5.485116e-05
4.732822e-05
4.078096e-05
3.573873e-05
3.254329e-05
3.127758e-05
3.173304e-05
3.343304e-05
3.571517e-05
3.785690e-05
3.921480e-05
3.934380e-05
3.806914e-05
3.549810e-05
3.197321e-05
2.798100e-05
2.403819e-05
2.058032e-05
1.787691e-05
1.599113e-05
1.479124e-05
1.400797e-05
1.331969e-05
1.244035e-05
1.118680e-05
9.509636e-06
7.484374e-06
5.271081e-06
3.058175e-06
1.008353e-06
0.000000e+00
0.000000e+00
-0.000000e+00
-0.000000e+00
-0.000000e+00
-0.000000e+00
-1.185471e-18
-1.778207e-18
5.018387e-19
-3.951571e-19
-3.282770e-18
-2.690035e-18
7.754822e-19
-2.567569e-18
-3.052670e-18
3.484159e-18
3.250249e-18
9.608108e-19
5.714947e-19
1.966226e-18
4.102155e-18
-1.427212e-19
-2.586798e-18
-6.038467e-19
2.385772e-19
-1.857188e-18
6.896002e-19
-7.727373e-19
-3.231563e-18
3.270810e-18
6.215872e-18
-3.184482e-19
1.205540e-18
3.350016e-18
4.568592e-19
-3.827433e-18
-2.101202e-18
1.212710e-18
-4.860191e-19
1.684053e-18
6.744768e-19
2.418159e-18
-3.998724e-18
-1.159132e-18
-3.072539e-18
-5.239176e-18
-9.750288e-18
-7.687685e-19
-9.518722e-18
-9.825579e-19
-5.692976e-19
1.452027e-18
2.573981e-18
6.980516e-18
4.387626e-18
-1.173685e-18
-2.669676e-18
-4.112252e-18
-8.352939e-18
2.679954e-18
-7.103099e-19
-5.909584e-18
-3.160188e-17
-5.733091e-17
5.040469e-16
5.283362e-15
2.534617e-14
8.136896e-14
2.190275e-13
5.473741e-13
1.319546e-12
3.113238e-12
7.242488e-12
1.693993e-11
4.174769e-11
1.140769e-10
3.337110e-10
9.361790e-10
2.378941e-09
5.537847e-09
1.212352e-08
2.541652e-08
5.152817e-08
1.014127e-07
1.938369e-07
3.594400e-07
6.458404e-07
1.123358e-06
1.890329e-06
3.076234e-06
4.840115e-06
7.361447e-06
1.082117e-05
1.537254e-05
2.110461e-05
2.800485e-05
3.593029e-05
4.459650e-05
5.359049e-05
6.240757e-05
7.050540e-05
7.736420e-05
8.254162e-05
8.571402e-05
8.670090e-05
8.547455e-05
8.215889e-05
7.702210e-05
7.046468e-05
6.300150e-05
5.523335e-05
4.780241e-05
4.132864e-05
3.633026e-05
3.313992e-05
3.183656e-05
3.221514e-05
3.381078e-05
3.597962e-05
3.802081e-05
3.931127e-05
3.942028e-05
3.817839e-05
3.568775e-05
3.227630e-05
2.840945e-05
2.458065e-05
2.120536e-05
1.854084e-05
1.664880e-05
1.540693e-05
1.456341e-05
1.381681e-05
1.289831e-05
1.163416e-05
9.974291e-06
7.984288e-06
5.808330e-06
3.617792e-06
1.561952e-06
0.000000e+00
0.000000e+00
-0.000000e+00
-0.000000e+00
-0.000000e+00
-0.000000e+00
-5.927357e-19
9.878928e-19
-4.362513e-18
-5.836460e-18
-1.732758e-18
-1.580628e-18
-4.544850e-20
-2.567569e-18
8.228359e-19
2.245619e-18
-1.634516e-18
5.327126e-18
-2.904785e-18
-9.230163e-19
1.485018e-18
2.672051e-18
2.063970e-19
-4.175373e-19
-1.643661e-18
3.185353e-19
1.535274e-19
3.910869e-18
8.446847e-19
4.251063e-18
3.371883e-18
2.656492e-18
-1.541644e-18
-1.476622e-18
3.879708e-18
-2.767742e-18
-5.796267e-18
-2.240880e-18
-2.432581e-18
-1.367002e-19
-2.894409e-18
-3.066594e-18
-2.928149e-18
-1.101005e-18
1.038281e-18
3.143659e-18
-1.672928e-18
6.435956e-18
2.855270e-18
7.308992e-18
3.402557e-18
-5.278557e-18
-1.157833e-17
-4.247792e-18
-8.940723e-19
1.380873e-18
1.266185e-17
6.403952e-18
-1.037188e-17
-8.527118e-18
-6.686176e-18
-1.686798e-17
-4.062898e-18
2.814954e-16
2.359690e-15
1.036283e-14
3.250418e-14
8.864690e-14
2.283149e-13
5.717658e-13
1.400372e-12
3.348142e-12
7.783229e-12
1.754741e-11
3.865678e-11
8.626573e-11
2.112157e-10
5.984940e-10
1.769686e-09
4.754208e-09
1.127849e-08
2.442016e-08
4.984113e-08
9.776828e-08
1.860462e-07
3.443266e-07
6.192596e-07
1.080235e-06
1.824686e-06
2.981232e-06
4.708229e-06
7.184934e-06
1.059298e-05
1.508768e-05
2.076166e-05
2.760730e-05
3.548713e-05
4.412186e-05
5.310233e-05
6.192567e-05
7.004932e-05
7.695165e-05
8.218766e-05
8.543104e-05
8.649939e-05
8.536406e-05
8.214886e-05
7.712200e-05
7.068305e-05
6.334379e-05
5.569865e-05
4.837978e-05
4.199417e-05
3.704619e-05
3.385720e-05
3.250118e-05
3.277753e-05
3.423622e-05
3.625676e-05
3.816584e-05
3.936615e-05
3.944544e-05
3.824116e-05
3.584932e-05
3.257973e-05
2.887137e-05
2.518863e-05
2.192166e-05
1.931211e-05
1.741936e-05
1.613236e-05
1.522057e-05
1.440765e-05
1.344644e-05
1.217547e-05
1.054464e-05
8.607918e-06
6.490108e-06
4.341316e-06
2.293508e-06
0.000000e+00
0.000000e+00
-0.000000e+00
-0.000000e+00
-0.000000e+00
-0.000000e+00
2.766100e-18
-5.152827e-18
-2.477624e-18
2.720651e-18
-3.161257e-18
-3.860674e-18
-4.437625e-18
1.337601e-18
1.757659e-18
9.851687e-19
1.162058e-18
-5.777967e-18
-1.634434e-20
-1.385565e-18
-2.020985e-18
-3.930343e-18
-3.967699e-18
8.663973e-19
-2.578344e-18
1.346780e-18
3.157404e-18
-7.337286e-19
4.692545e-19
-2.197058e-18
8.782061e-19
1.340561e-18
9.292433e-20
-2.277676e-19
-2.974289e-18
-1.365804e-18
-5.326237e-18
8.606943e-19
-2.460182e-19
-1.711485e-18
-3.535794e-18
-2.103235e-18
1.071337e-18
2.759596e-18
7.642758e-18
1.272984e-18
1.003078e-17
3.070643e-18
1.603999e-17
1.444577e-17
9.013294e-18
-4.617915e-18
-1.587930e-17
-1.092221e-17
2.241057e-18
-8.104329e-19
9.894421e-18
9.849692e-18
7.848574e-18
-4.930264e-18
-1.509637e-17
1.068719e-19
1.377720e-16
9.967144e-16
4.065202e-15
1.260631e-14
3.493866e-14
9.220100e-14
2.373315e-13
5.993683e-13
1.482757e-12
3.582008e-12
8.412625e-12
1.911054e-11
4.180568e-11
8.805593e-11
1.816631e-10
3.917973e-10
9.953523e-10
2.986925e-09
8.697617e-09
2.176931e-08
4.756852e-08
9.526524e-08
1.809360e-07
3.320723e-07
5.933268e-07
1.032649e-06
1.746668e-06
2.863744e-06
4.542373e-06
6.962342e-06
1.030646e-05
1.473233e-05
2.033640e-05
2.711643e-05
3.494130e-05
4.353792e-05
5.250191e-05
6.133286e-05
6.948808e-05
7.644368e-05
8.175129e-05
8.508117e-05
8.624833e-05
8.522275e-05
8.212788e-05
7.723172e-05
7.093262e-05
6.373863e-05
5.623672e-05
4.904733e-05
4.276226e-05
3.786966e-05
3.467744e-05
3.325349e-05
3.340212e-05
3.469052e-05
3.652568e-05
3.826705e-05
3.934842e-05
3.938013e-05
3.820886e-05
3.592430e-05
3.281564e-05
2.929124e-05
2.578140e-05
2.264624e-05
2.010835e-05
1.822340e-05
1.689250e-05
1.590940e-05
1.502704e-05
1.402427e-05
1.275530e-05
1.117158e-05
9.314782e-06
7.287837e-06
5.215805e-06
3.209316e-06
0.000000e+00
0.000000e+00
-0.000000e+00
-0.000000e+00
-0.000000e+00
1.975786e-19
8.969958e-19
-3.556414e-18
4.712221e-19
4.513690e-18
7.439131e-19
1.276368e-18
1.276368e-18
9.376813e-19
-7.112577e-19
2.466051e-18
-5.883554e-18
-9.326510e-19
-2.532925e-18
-1.880961e-19
-4.688545e-18
-3.854506e-18
-4.145058e-18
1.252598e-18
3.128144e-18
-2.789265e-18
-4.161122e-18
-3.406079e-18
-4.204551e-18
-4.530236e-18
-1.581703e-18
-5.917167e-18
-7.042314e-19
-6.779225e-19
4.477071e-18
1.038692e-18
2.278015e-18
3.110698e-18
-1.016876e-18
-8.097757e-19
-3.248756e-18
2.615062e-18
1.566604e-19
-6.529624e-19
-5.199516e-19
1.485609e-18
4.008311e-18
5.564269e-19
9.702675e-19
4.184313e-18
1.473271e-17
6.670467e-18
7.249639e-19
-6.523155e-18
-7.119971e-18
-1.303688e-17
-1.500964e-18
6.724310e-18
9.671448e-18
3.424987e-18
3.632038e-18
5.577993e-17
3.862855e-16
1.518798e-15
4.755881e-15
1.342021e-14
3.632159e-14
9.572177e-14
2.472398e-13
6.258033e-13
1.550913e-12
3.755441e-12
8.862711e-12
2.032218e-11
4.509475e-11
9.634616e-11
1.972266e-10
3.873096e-10
7.537844e-10
1.629482e-09
4.515892e-09
1.413289e-08
3.887530e-08
8.874009e-08
1.774021e-07
3.280340e-07
5.799386e-07
9.966181e-07
1.672557e-06
2.736491e-06
4.349168e-06
6.693654e-06
9.956375e-06
1.429865e-05
1.982108e-05
2.652647e-05
3.428971e-05
4.284398e-05
5.179019e-05
6.063101e-05
6.882400e-05
7.584295e-05
8.123555e-05
8.466785e-05
8.595146e-05
8.505431e-05
8.209900e-05
7.735304e-05
7.121323e-05
6.418345e-05
5.684242e-05
4.979763e-05
4.362400e-05
3.879139e-05
3.559237e-05
3.408742e-05
3.408562e-05
3.517286e-05
3.678682e-05
3.832405e-05
3.925427e-05
3.921473e-05
3.806411e-05
3.588664e-05
3.294965e-05
2.962787e-05
2.631340e-05
2.333204e-05
2.088373e-05
1.901840e-05
1.764922e-05
1.659614e-05
1.564487e-05
1.460446e-05
1.334867e-05
1.183304e-05
1.008763e-05
8.192074e-06
6.243390e-06
4.327017e-06
0.000000e+00
0.000000e+00
-0.000000e+00
-0.000000e+00
-0.000000e+00
-1.383050e-18
3.951571e-18
3.161257e-18
1.975786e-19
-4.058253e-18
-2.477624e-18
8.051462e-19
2.032256e-18
9.521038e-19
-4.317749e-18
1.064902e-18
1.161799e-18
-2.797176e-18
1.731729e-18
-1.517235e-18
-3.029095e-18
-1.894020e-18
3.216339e-18
3.791005e-18
-6.564316e-18
-8.792442e-19
-4.308280e-18
5.742524e-18
-1.985333e-18
-2.662821e-18
-1.307234e-18
4.975771e-19
-2.765737e-18
1.314360e-18
-1.019565e-19
3.022295e-18
-2.125375e-18
2.662442e-18
1.943965e-18
2.545563e-18
-5.583840e-19
-9.738163e-19
3.254365e-18
1.000660e-18
9.237447e-19
-1.605545e-18
5.853108e-19
2.357984e-18
1.897083e-18
-3.694456e-18
9.059654e-18
6.976097e-18
1.007955e-18
6.068598e-18
-7.369613e-19
-6.613822e-18
-1.556535e-17
1.499993e-18
1.583477e-17
8.649061e-18
3.687980e-17
1.743350e-16
5.650801e-16
1.748498e-15
5.038335e-15
1.396142e-14
3.768186e-14
9.941818e-14
2.569227e-13
6.495529e-13
1.605401e-12
3.876070e-12
9.137816e-12
2.101913e-11
4.708716e-11
1.023605e-10
2.147143e-10
4.313821e-10
8.242011e-10
1.504968e-09
2.802870e-09
6.438910e-09
1.999333e-08
6.198629e-08
1.551285e-07
3.193917e-07
5.831153e-07
9.960845e-07
1.641321e-06
2.643368e-06
4.166673e-06
6.403371e-06
9.550943e-06
1.378092e-05
1.920174e-05
2.582172e-05
3.351990e-05
4.203320e-05
5.096595e-05
5.982319e-05
6.806280e-05
7.515654e-05
8.064818e-05
8.419916e-05
8.561698e-05
8.486671e-05
8.206945e-05
7.749176e-05
7.152866e-05
6.467962e-05
5.751474e-05
5.062791e-05
4.457604e-05
3.980924e-05
3.660300e-05
3.500888e-05
3.484000e-05
3.570141e-05
3.706341e-05
3.836300e-05
3.910996e-05
3.897268e-05
3.782527e-05
3.574843e-05
3.298776e-05
2.988263e-05
2.678381e-05
2.397889e-05
2.164132e-05
1.981226e-05
1.841559e-05
1.729800e-05
1.628047e-05
1.520604e-05
1.397219e-05
1.254207e-05
1.093611e-05
9.210632e-06
7.432707e-06
5.659297e-06
0.000000e+00
0.000000e+00
-0.000000e+00
3.951571e-19
-1.975786e-19
-1.489731e-18
2.173364e-18
-3.739160e-18
-1.565796e-18
-4.103701e-18
-7.903142e-19
-6.410419e-19
4.120029e-18
3.879993e-18
-1.334476e-18
-2.741734e-18
-4.922510e-18
8.663946e-19
-5.228320e-19
4.711190e-18
4.915219e-18
4.684933e-18
6.723614e-19
1.982909e-18
-4.216717e-20
3.101851e-18
1.158522e-18
-2.747363e-18
2.435983e-18
-1.573406e-18
2.615466e-19
5.282424e-18
4.184201e-18
2.200026e-18
6.542238e-20
-3.530272e-18
-8.468413e-19
1.166549e-18
1.322849e-18
6.379176e-19
6.966454e-19
3.047657e-19
-4.016508e-18
5.605786e-18
1.154921e-18
-5.326873e-18
-2.661257e-18
-3.987541e-18
-3.005440e-18
-5.858351e-18
-6.313302e-18
3.948177e-18
-1.473670e-19
1.929594e-17
2.027743e-17
3.872630e-18
-2.217339e-17
-2.213848e-17
-5.336764e-18
1.626555e-17
6.063143e-17
1.929914e-16
6.396352e-16
1.870247e-15
5.236188e-15
1.445339e-14
3.900066e-14
1.028589e-13
2.654425e-13
6.692320e-13
1.647408e-12
3.960334e-12
9.303038e-12
2.136574e-11
4.796986e-11
1.051395e-10
2.242260e-10
4.627175e-10
9.164717e-10
1.724092e-09
3.051677e-09
5.167146e-09
9.535105e-09
2.515257e-08
8.507329e-08
2.453132e-07
5.458440e-07
1.010675e-06
1.686665e-06
2.666154e-06
4.100718e-06
6.192583e-06
9.164262e-06
1.321610e-05
1.848069e-05
2.498114e-05
3.260184e-05
4.107853e-05
5.001184e-05
5.890314e-05
6.720725e-05
7.439295e-05
8.000046e-05
8.368714e-05
8.525651e-05
8.467053e-05
8.204831e-05
7.765503e-05
7.188372e-05
6.522947e-05
5.825388e-05
5.153716e-05
4.561785e-05
4.092536e-05
3.771670e-05
3.603285e-05
3.568948e-05
3.631013e-05
3.739822e-05
3.843322e-05
3.896824e-05
3.870681e-05
3.754247e-05
3.555547e-05
3.297126e-05
3.009361e-05
2.722987e-05
2.462584e-05
2.242421e-05
2.065331e-05
1.924471e-05
1.807073e-05
1.698860e-05
1.587838e-05
1.466541e-05
1.332469e-05
1.187029e-05
1.033677e-05
8.760744e-06
7.168504e-06
0.000000e+00
0.000000e+00
-0.000000e+00
-1.185471e-18
9.878928e-19
1.778207e-18
-2.884755e-19
1.185471e-18
-1.306985e-18
-2.203981e-18
-1.688672e-19
2.331753e-18
3.181938e-18
-2.379925e-18
-7.058013e-19
1.082809e-18
3.460176e-18
-2.623957e-18
-5.200868e-18
-1.486190e-18
9.352707e-19
4.187716e-18
2.707338e-18
1.837030e-18
2.255426e-18
-6.901351e-20
-3.619074e-18
4.140432e-18
5.937118e-18
2.625161e-18
3.441297e-18
-8.577027e-19
3.371942e-18
-7.287368e-19
-5.905023e-18
1.530756e-18
1.345605e-18
3.250613e-18
4.895441e-18
-4.336141e-18
2.113712e-18
-5.065258e-18
3.042387e-18
-2.225287e-18
-5.660290e-18
3.452196e-18
-2.797041e-18
-4.470456e-18
8.237479e-19
-1.107459e-17
-1.251457e-17
2.203903e-18
2.613117e-18
6.198528e-18
9.191540e-18
-7.978145e-18
-2.373272e-17
-1.061638e-17
2.880795e-18
1.373871e-17
6.178303e-17
1.982204e-16
6.520673e-16
1.942027e-15
5.395931e-15
1.487476e-14
4.012361e-14
1.057343e-13
2.720750e-13
6.835775e-13
1.676633e-12
4.016217e-12
9.402299e-12
2.152855e-11
4.824201e-11
1.058084e-10
2.269398e-10
4.747652e-10
9.640275e-10
1.885216e-09
3.510667e-09
6.136981e-09
9.958722e-09
1.571351e-08
3.098367e-08
9.898438e-08
3.358329e-07
8.578906e-07
1.682706e-06
2.806103e-06
4.289442e-06
6.287452e-06
9.038458e-06
1.280143e-05
1.777780e-05
2.404506e-05
3.151631e-05
3.993071e-05
4.887536e-05
5.783192e-05
6.623772e-05
7.354968e-05
7.930130e-05
8.314624e-05
8.488573e-05
8.448013e-05
8.204737e-05
7.785165e-05
7.228419e-05