# vtk DataFile Version 3.0
Resultado Projeto 1
ASCII
DATASET STRUCTURED_GRID
DIMENSIONS 41 21 1
POINTS 861 double
0.000000e+00 -1.157448e-01 0
1.449944e-02 -1.097892e-01 0
2.831092e-02 -1.041163e-01 0
4.146708e-02 -9.871251e-02 0
5.399901e-02 -9.356513e-02 0
6.593632e-02 -8.866197e-02 0
7.730724e-02 -8.399146e-02 0
8.813864e-02 -7.954256e-02 0
9.845611e-02 -7.530474e-02 0
1.082840e-01 -7.126800e-02 0
1.176457e-01 -6.742279e-02 0
1.265631e-01 -6.376003e-02 0
1.350574e-01 -6.027106e-02 0
1.431487e-01 -5.694763e-02 0
1.508561e-01 -5.378189e-02 0
1.581978e-01 -5.080607e-02 0
1.651911e-01 -4.848689e-02 0
1.718526e-01 -4.684858e-02 0
1.781981e-01 -4.577717e-02 0
1.842424e-01 -4.518435e-02 0
1.900000e-01 -4.500000e-02 0
1.957576e-01 -4.510154e-02 0
2.018019e-01 -4.522920e-02 0
2.081474e-01 -4.536323e-02 0
2.148089e-01 -4.550393e-02 0
2.218022e-01 -4.565164e-02 0
2.291439e-01 -4.580671e-02 0
2.368513e-01 -4.596950e-02 0
2.449426e-01 -4.614040e-02 0
2.534369e-01 -4.631982e-02 0
2.623543e-01 -4.650817e-02 0
2.717160e-01 -4.670590e-02 0
2.815439e-01 -4.691348e-02 0
2.918614e-01 -4.713140e-02 0
3.026928e-01 -4.736018e-02 0
3.140637e-01 -4.760035e-02 0
3.260010e-01 -4.785249e-02 0
3.385329e-01 -4.811718e-02 0
3.516891e-01 -4.839506e-02 0
3.655006e-01 -4.868678e-02 0
3.800000e-01 -4.899304e-02 0
0.000000e+00 -1.125296e-01 0
1.449944e-02 -1.067395e-01 0
2.831092e-02 -1.012242e-01 0
4.146708e-02 -9.597050e-02 0
5.399901e-02 -9.096610e-02 0
6.593632e-02 -8.619914e-02 0
7.730724e-02 -8.165837e-02 0
8.813864e-02 -7.733304e-02 0
9.845611e-02 -7.321294e-02 0
1.082840e-01 -6.928833e-02 0
1.176457e-01 -6.554994e-02 0
1.265631e-01 -6.198892e-02 0
1.350574e-01 -5.859686e-02 0
1.431487e-01 -5.536575e-02 0
1.508561e-01 -5.228795e-02 0
1.581978e-01 -4.939479e-02 0
1.651911e-01 -4.714003e-02 0
1.718526e-01 -4.554723e-02 0
1.781981e-01 -4.450558e-02 0
1.842424e-01 -4.392923e-02 0
1.900000e-01 -4.375000e-02 0
1.957576e-01 -4.384872e-02 0
2.018019e-01 -4.397284e-02 0
2.081474e-01 -4.410314e-02 0
2.148089e-01 -4.423993e-02 0
2.218022e-01 -4.438354e-02 0
2.291439e-01 -4.453430e-02 0
2.368513e-01 -4.469257e-02 0
2.449426e-01 -4.485873e-02 0
2.534369e-01 -4.503316e-02 0
2.623543e-01 -4.521627e-02 0
2.717160e-01 -4.540851e-02 0
2.815439e-01 -4.561033e-02 0
2.918614e-01 -4.582220e-02 0
3.026928e-01 -4.604462e-02 0
3.140637e-01 -4.627812e-02 0
3.260010e-01 -4.652325e-02 0
3.385329e-01 -4.678059e-02 0
3.516891e-01 -4.705076e-02 0
3.655006e-01 -4.733437e-02 0
3.800000e-01 -4.763212e-02 0
0.000000e+00 -1.091281e-01 0
1.449944e-02 -1.035130e-01 0
2.831092e-02 -9.816435e-02 0
4.146708e-02 -9.306948e-02 0
5.399901e-02 -8.821635e-02 0
6.593632e-02 -8.359349e-02 0
7.730724e-02 -7.918998e-02 0
8.813864e-02 -7.499540e-02 0
9.845611e-02 -7.099984e-02 0
1.082840e-01 -6.719387e-02 0
1.176457e-01 -6.356848e-02 0
1.265631e-01 -6.011510e-02 0
1.350574e-01 -5.682558e-02 0
1.431487e-01 -5.369214e-02 0
1.508561e-01 -5.070737e-02 0
1.581978e-01 -4.790167e-02 0
1.651911e-01 -4.571507e-02 0
1.718526e-01 -4.417042e-02 0
1.781981e-01 -4.316025e-02 0
1.842424e-01 -4.260133e-02 0
1.900000e-01 -4.242751e-02 0
1.957576e-01 -4.252325e-02 0
2.018019e-01 -4.264361e-02 0
2.081474e-01 -4.276998e-02 0
2.148089e-01 -4.290264e-02 0
2.218022e-01 -4.304190e-02 0
2.291439e-01 -4.318811e-02 0
2.368513e-01 -4.334159e-02 0
2.449426e-01 -4.350272e-02 0
2.534369e-01 -4.367188e-02 0
2.623543e-01 -4.384947e-02 0
2.717160e-01 -4.403589e-02 0
2.815439e-01 -4.423161e-02 0
2.918614e-01 -4.443707e-02 0
3.026928e-01 -4.465277e-02 0
3.140637e-01 -4.487921e-02 0
3.260010e-01 -4.511694e-02 0
3.385329e-01 -4.536650e-02 0
3.516891e-01 -4.562849e-02 0
3.655006e-01 -4.590354e-02 0
3.800000e-01 -4.619228e-02 0
0.000000e+00 -1.055292e-01 0
1.449944e-02 -1.000993e-01 0
2.831092e-02 -9.492708e-02 0
4.146708e-02 -9.000023e-02 0
5.399901e-02 -8.530715e-02 0
6.593632e-02 -8.083675e-02 0
7.730724e-02 -7.657845e-02 0
8.813864e-02 -7.252220e-02 0
9.845611e-02 -6.865841e-02 0
1.082840e-01 -6.497795e-02 0
1.176457e-01 -6.147212e-02 0
1.265631e-01 -5.813263e-02 0
1.350574e-01 -5.495159e-02 0
1.431487e-01 -5.192148e-02 0
1.508561e-01 -4.903515e-02 0
1.581978e-01 -4.632197e-02 0
1.651911e-01 -4.420748e-02 0
1.718526e-01 -4.271377e-02 0
1.781981e-01 -4.173691e-02 0
1.842424e-01 -4.119642e-02 0
1.900000e-01 -4.102834e-02 0
1.957576e-01 -4.112091e-02 0
2.018019e-01 -4.123731e-02 0
2.081474e-01 -4.135951e-02 0
2.148089e-01 -4.148779e-02 0
2.218022e-01 -4.162247e-02 0
2.291439e-01 -4.176385e-02 0
2.368513e-01 -4.191227e-02 0
2.449426e-01 -4.206809e-02 0
2.534369e-01 -4.223167e-02 0
2.623543e-01 -4.240340e-02 0
2.717160e-01 -4.258368e-02 0
2.815439e-01 -4.277294e-02 0
2.918614e-01 -4.297163e-02 0
3.026928e-01 -4.318021e-02 0
3.140637e-01 -4.339919e-02 0
3.260010e-01 -4.362907e-02 0
3.385329e-01 -4.387040e-02 0
3.516891e-01 -4.412376e-02 0
3.655006e-01 -4.438973e-02 0
3.800000e-01 -4.466895e-02 0
0.000000e+00 -1.017217e-01 0
1.449944e-02 -9.648774e-02 0
2.831092e-02 -9.150210e-02 0
4.146708e-02 -8.675301e-02 0
5.399901e-02 -8.222925e-02 0
6.593632e-02 -7.792014e-02 0
7.730724e-02 -7.381549e-02 0
8.813864e-02 -6.990559e-02 0
9.845611e-02 -6.618120e-02 0
1.082840e-01 -6.263353e-02 0
1.176457e-01 -5.925419e-02 0
1.265631e-01 -5.603519e-02 0
1.350574e-01 -5.296892e-02 0
1.431487e-01 -5.004814e-02 0
1.508561e-01 -4.726595e-02 0
1.581978e-01 -4.465066e-02 0
1.651911e-01 -4.261246e-02 0
1.718526e-01 -4.117265e-02 0
1.781981e-01 -4.023104e-02 0
1.842424e-01 -3.971005e-02 0
1.900000e-01 -3.954803e-02 0
1.957576e-01 -3.963726e-02 0
2.018019e-01 -3.974946e-02 0
2.081474e-01 -3.986725e-02 0
2.148089e-01 -3.999091e-02 0
2.218022e-01 -4.012072e-02 0
2.291439e-01 -4.025700e-02 0
2.368513e-01 -4.040007e-02 0
2.449426e-01 -4.055027e-02 0
2.534369e-01 -4.070794e-02 0
2.623543e-01 -4.087347e-02 0
2.717160e-01 -4.104725e-02 0
2.815439e-01 -4.122968e-02 0
2.918614e-01 -4.142120e-02 0
3.026928e-01 -4.162226e-02 0
3.140637e-01 -4.183334e-02 0
3.260010e-01 -4.205492e-02 0
3.385329e-01 -4.228755e-02 0
3.516891e-01 -4.253176e-02 0
3.655006e-01 -4.278814e-02 0
3.800000e-01 -4.305729e-02 0
0.000000e+00 -9.769342e-02 0
1.449944e-02 -9.266670e-02 0
2.831092e-02 -8.787850e-02 0
4.146708e-02 -8.331748e-02 0
5.399901e-02 -7.897287e-02 0
6.593632e-02 -7.483440e-02 0
7.730724e-02 -7.089230e-02 0
8.813864e-02 -6.713724e-02 0
9.845611e-02 -6.356034e-02 0
1.082840e-01 -6.015316e-02 0
1.176457e-01 -5.690765e-02 0
1.265631e-01 -5.381612e-02 0
1.350574e-01 -5.087129e-02 0
1.431487e-01 -4.806617e-02 0
1.508561e-01 -4.539416e-02 0
1.581978e-01 -4.288244e-02 0
1.651911e-01 -4.092496e-02 0
1.718526e-01 -3.954216e-02 0
1.781981e-01 -3.863784e-02 0
1.842424e-01 -3.813748e-02 0
1.900000e-01 -3.798188e-02 0
1.957576e-01 -3.806758e-02 0
2.018019e-01 -3.817533e-02 0
2.081474e-01 -3.828846e-02 0
2.148089e-01 -3.840722e-02 0
2.218022e-01 -3.853189e-02 0
2.291439e-01 -3.866277e-02 0
2.368513e-01 -3.880018e-02 0
2.449426e-01 -3.894442e-02 0
2.534369e-01 -3.909586e-02 0
2.623543e-01 -3.925483e-02 0
2.717160e-01 -3.942173e-02 0
2.815439e-01 -3.959694e-02 0
2.918614e-01 -3.978087e-02 0
3.026928e-01 -3.997397e-02 0
3.140637e-01 -4.017668e-02 0
3.260010e-01 -4.038950e-02 0
3.385329e-01 -4.061291e-02 0
3.516891e-01 -4.084745e-02 0
3.655006e-01 -4.109368e-02 0
3.800000e-01 -4.135217e-02 0
0.000000e+00 -9.343151e-02 0
1.449944e-02 -8.862409e-02 0
2.831092e-02 -8.404477e-02 0
4.146708e-02 -7.968273e-02 0
5.399901e-02 -7.552766e-02 0
6.593632e-02 -7.156973e-02 0
7.730724e-02 -6.779960e-02 0
8.813864e-02 -6.420835e-02 0
9.845611e-02 -6.078750e-02 0
1.082840e-01 -5.752896e-02 0
1.176457e-01 -5.442504e-02 0
1.265631e-01 -5.146838e-02 0
1.350574e-01 -4.865201e-02 0
1.431487e-01 -4.596927e-02 0
1.508561e-01 -4.341382e-02 0
1.581978e-01 -4.101168e-02 0
1.651911e-01 -3.913959e-02 0
1.718526e-01 -3.781712e-02 0
1.781981e-01 -3.695225e-02 0
1.842424e-01 -3.647372e-02 0
1.900000e-01 -3.632491e-02 0
1.957576e-01 -3.640687e-02 0
2.018019e-01 -3.650992e-02 0
2.081474e-01 -3.661811e-02 0
2.148089e-01 -3.673169e-02 0
2.218022e-01 -3.685092e-02 0
2.291439e-01 -3.697610e-02 0
2.368513e-01 -3.710751e-02 0
2.449426e-01 -3.724546e-02 0
2.534369e-01 -3.739029e-02 0
2.623543e-01 -3.754233e-02 0
2.717160e-01 -3.770194e-02 0
2.815439e-01 -3.786951e-02 0
2.918614e-01 -3.804542e-02 0
3.026928e-01 -3.823009e-02 0
3.140637e-01 -3.842396e-02 0
3.260010e-01 -3.862749e-02 0
3.385329e-01 -3.884116e-02 0
3.516891e-01 -3.906547e-02 0
3.655006e-01 -3.930095e-02 0
3.800000e-01 -3.954816e-02 0
0.000000e+00 -8.892246e-02 0
1.449944e-02 -8.434705e-02 0
2.831092e-02 -7.998873e-02 0
4.146708e-02 -7.583721e-02 0
5.399901e-02 -7.188266e-02 0
6.593632e-02 -6.811574e-02 0
7.730724e-02 -6.452756e-02 0
8.813864e-02 -6.110963e-02 0
9.845611e-02 -5.785387e-02 0
1.082840e-01 -5.475259e-02 0
1.176457e-01 -5.179846e-02 0
1.265631e-01 -4.898449e-02 0
1.350574e-01 -4.630404e-02 0
1.431487e-01 -4.375077e-02 0
1.508561e-01 -4.131865e-02 0
1.581978e-01 -3.903244e-02 0
1.651911e-01 -3.725070e-02 0
1.718526e-01 -3.599205e-02 0
1.781981e-01 -3.516892e-02 0
1.842424e-01 -3.471348e-02 0
1.900000e-01 -3.457185e-02 0
1.957576e-01 -3.464986e-02 0
2.018019e-01 -3.474794e-02 0
2.081474e-01 -3.485091e-02 0
2.148089e-01 -3.495900e-02 0
2.218022e-01 -3.507248e-02 0
2.291439e-01 -3.519162e-02 0
2.368513e-01 -3.531668e-02 0
2.449426e-01 -3.544798e-02 0
2.534369e-01 -3.558582e-02 0
2.623543e-01 -3.573052e-02 0
2.717160e-01 -3.588243e-02 0
2.815439e-01 -3.604191e-02 0
2.918614e-01 -3.620933e-02 0
3.026928e-01 -3.638509e-02 0
3.140637e-01 -3.656961e-02 0
3.260010e-01 -3.676331e-02 0
3.385329e-01 -3.696667e-02 0
3.516891e-01 -3.718015e-02 0
3.655006e-01 -3.740427e-02 0
3.800000e-01 -3.763955e-02 0
0.000000e+00 -8.415195e-02 0
1.449944e-02 -7.982200e-02 0
2.831092e-02 -7.569749e-02 0
4.146708e-02 -7.176869e-02 0
5.399901e-02 -6.802629e-02 0
6.593632e-02 -6.446147e-02 0
7.730724e-02 -6.106578e-02 0
8.813864e-02 -5.783122e-02 0
9.845611e-02 -5.475012e-02 0
1.082840e-01 -5.181522e-02 0
1.176457e-01 -4.901957e-02 0
1.265631e-01 -4.635657e-02 0
[...]
POINT_DATA 861
SCALARS Jacob double
LOOKUP_TABLE default
2.145111e+04
2.316427e+04
2.564312e+04
2.839413e+04
3.144835e+04
3.484060e+04
3.860993e+04
4.280020e+04
4.746070e+04
5.264693e+04
5.842141e+04
6.485469e+04
7.202649e+04
8.002700e+04
8.895846e+04
9.885960e+04
1.087480e+05
1.181572e+05
1.269460e+05
1.350178e+05
1.389474e+05
1.352657e+05
1.284840e+05
1.220261e+05
1.158768e+05
1.100216e+05
1.044466e+05
9.913851e+04
9.408484e+04
8.927360e+04
8.469339e+04
8.033335e+04
7.618313e+04
7.223288e+04
6.847323e+04
6.489525e+04
6.149041e+04
5.825062e+04
5.516817e+04
5.223570e+04
5.067769e+04
2.084668e+04
2.251157e+04
2.492057e+04
2.759406e+04
3.056222e+04
3.385889e+04
3.752201e+04
4.159420e+04
4.612339e+04
5.116348e+04
5.677525e+04
6.302726e+04
6.999697e+04
7.777206e+04
8.645185e+04
9.607400e+04
1.056838e+05
1.148279e+05
1.233690e+05
1.312133e+05
1.350322e+05
1.314543e+05
1.248636e+05
1.185877e+05
1.126118e+05
1.069215e+05
1.015036e+05
9.634505e+04
9.143378e+04
8.675811e+04
8.230696e+04
7.806977e+04
7.403649e+04
7.019756e+04
6.654384e+04
6.306667e+04
5.975778e+04
5.660928e+04
5.361368e+04
5.076384e+04
4.924973e+04
1.970407e+04
2.127770e+04
2.355467e+04
2.608162e+04
2.888710e+04
3.200308e+04
3.546542e+04
3.931442e+04
4.359536e+04
4.835920e+04
5.366339e+04
5.957272e+04
6.616043e+04
7.350936e+04
8.171341e+04
9.080817e+04
9.989123e+04
1.085341e+05
1.166071e+05
1.240215e+05
1.276311e+05
1.242492e+05
1.180198e+05
1.120879e+05
1.064395e+05
1.010611e+05
9.594013e+04
9.106436e+04
8.642228e+04
8.200289e+04
7.779570e+04
7.379075e+04
6.997854e+04
6.635002e+04
6.289656e+04
5.960998e+04
5.648244e+04
5.350651e+04
5.067511e+04
4.798146e+04
4.655035e+04
1.862408e+04
2.011147e+04
2.226363e+04
2.465209e+04
2.730380e+04
3.024898e+04
3.352156e+04
3.715959e+04
4.120589e+04
4.570863e+04
5.072209e+04
5.630753e+04
6.253416e+04
6.948029e+04
7.723469e+04
8.583096e+04
9.441617e+04
1.025854e+05
1.102159e+05
1.172239e+05
1.206356e+05
1.174391e+05
1.115511e+05
1.059444e+05
1.006055e+05
9.552195e+04
9.068163e+04
8.607311e+04
8.168546e+04
7.750829e+04
7.353171e+04
6.974627e+04
6.614300e+04
6.271336e+04
5.944919e+04
5.634274e+04
5.338663e+04
5.057381e+04
4.789759e+04
4.535159e+04
4.399891e+04
1.760329e+04
1.900916e+04
2.104336e+04
2.330090e+04
2.580727e+04
2.859103e+04
3.168423e+04
3.512287e+04
3.894739e+04
4.320333e+04
4.794200e+04
5.322131e+04
5.910665e+04
6.567207e+04
7.300144e+04
8.112655e+04
8.924120e+04
9.696264e+04
1.041749e+05
1.107988e+05
1.140235e+05
1.110023e+05
1.054370e+05
1.001375e+05
9.509131e+04
9.028637e+04
8.571136e+04
8.135543e+04
7.720827e+04
7.326005e+04
6.950142e+04
6.592346e+04
6.251770e+04
5.927603e+04
5.619077e+04
5.325459e+04
5.046050e+04
4.780185e+04
4.527232e+04
4.286586e+04
4.158733e+04
1.663846e+04
1.796726e+04
1.988997e+04
2.202377e+04
2.439277e+04
2.702395e+04
2.994761e+04
3.319777e+04
3.681267e+04
4.083535e+04
4.531429e+04
5.030424e+04
5.586701e+04
6.207257e+04
6.900022e+04
7.667999e+04
8.434988e+04
9.164810e+04
9.846506e+04
1.047259e+05
1.077739e+05
1.049182e+05
9.965799e+04
9.464898e+04
8.987934e+04
8.533776e+04
8.101350e+04
7.689632e+04
7.297647e+04
6.924465e+04
6.569203e+04
6.231019e+04
5.909109e+04
5.602710e+04
5.311095e+04
5.033570e+04
4.769475e+04
4.518183e+04
4.279093e+04
4.051638e+04
3.930792e+04
1.572650e+04
1.698247e+04
1.879980e+04
2.081665e+04
2.305580e+04
2.554276e+04
2.830618e+04
3.137820e+04
3.479496e+04
3.859715e+04
4.283061e+04
4.754705e+04
5.280493e+04
5.867036e+04
6.521830e+04
7.247714e+04
7.972665e+04
8.662485e+04
9.306817e+04
9.898586e+04
1.018668e+05
9.916762e+04
9.419572e+04
8.946126e+04
8.495304e+04
8.066038e+04
7.657314e+04
7.268162e+04
6.897661e+04
6.544934e+04
6.209144e+04
5.889495e+04
5.585230e+04
5.295625e+04
5.019993e+04
4.757679e+04
4.508059e+04
4.270540e+04
4.044556e+04
3.829567e+04
3.715344e+04
1.486453e+04
1.605166e+04
1.776938e+04
1.967568e+04
2.179210e+04
2.414276e+04
2.675471e+04
2.965835e+04
3.288785e+04
3.648164e+04
4.048306e+04
4.494099e+04
4.991068e+04
5.545463e+04
6.164368e+04
6.850466e+04
7.535682e+04
8.187693e+04
8.796709e+04
9.356043e+04
9.628344e+04
9.373223e+04
8.903283e+04
8.455787e+04
8.029674e+04
7.623937e+04
7.237615e+04
6.869793e+04
6.519599e+04
6.186205e+04
5.868820e+04
5.566691e+04
5.279102e+04
5.005370e+04
4.744846e+04
4.496910e+04
4.260972e+04
4.036471e+04
3.822873e+04
3.619668e+04
3.511706e+04
1.404980e+04
1.517187e+04
1.679543e+04
1.859726e+04
2.059767e+04
2.281949e+04
2.528828e+04
2.803277e+04
3.108526e+04
3.448207e+04
3.826417e+04
4.247777e+04
4.717507e+04
5.241515e+04
5.826498e+04
6.474991e+04
7.122649e+04
7.738924e+04
8.314560e+04
8.843236e+04
9.100613e+04
8.859475e+04
8.415293e+04
7.992324e+04
7.589567e+04
7.206068e+04
6.840920e+04
6.493258e+04
6.162259e+04
5.847138e+04
5.547149e+04
5.261580e+04
4.989754e+04
4.731025e+04
4.484780e+04
4.250433e+04
4.027427e+04
3.815231e+04
3.613340e+04
3.421273e+04
3.319228e+04
1.327973e+04
1.434029e+04
1.587487e+04
1.757794e+04
1.946871e+04
2.156875e+04
2.390223e+04
2.649629e+04
2.938147e+04
3.259210e+04
3.616691e+04
4.014955e+04
4.458939e+04
4.954227e+04
5.507146e+04
6.120095e+04
6.732256e+04
7.314752e+04
7.858837e+04
8.358537e+04
8.601806e+04
8.373885e+04
7.954049e+04
7.554263e+04
7.173581e+04
6.811102e+04
6.465968e+04
6.137362e+04
5.824505e+04
5.526656e+04
5.243109e+04
4.973192e+04
4.716264e+04
4.471717e+04
4.238968e+04
4.017466e+04
3.806683e+04
3.606118e+04
3.415293e+04
3.233752e+04
3.137301e+04
1.255186e+04
1.355430e+04
1.500477e+04
1.661449e+04
1.840163e+04
2.038656e+04
2.259214e+04
2.504403e+04
2.777106e+04
3.080572e+04
3.418459e+04
3.794895e+04
4.214544e+04
4.682685e+04
5.205299e+04
5.784652e+04
6.363260e+04
6.913829e+04
7.428093e+04
7.900404e+04
8.130340e+04
7.914911e+04
7.518086e+04
7.140213e+04
6.780396e+04
6.437784e+04
6.111567e+04
5.800972e+04
5.505262e+04
5.223739e+04
4.955733e+04
4.700610e+04
4.457765e+04
4.226621e+04
4.006630e+04
3.797268e+04
3.598038e+04
3.408466e+04
3.228100e+04
3.056510e+04
2.965345e+04
1.186389e+04
1.281139e+04
1.418235e+04
1.570384e+04
1.739303e+04
1.926917e+04
2.135386e+04
2.367136e+04
2.624893e+04
2.911726e+04
3.231093e+04
3.586896e+04
3.983544e+04
4.426026e+04
4.919995e+04
5.467594e+04
6.014488e+04
6.534881e+04
7.020958e+04
7.467382e+04
7.684715e+04
7.481094e+04
7.106019e+04
6.748856e+04
6.408761e+04
6.084928e+04
5.776591e+04
5.483019e+04
5.203518e+04
4.937425e+04
4.684108e+04
4.442969e+04
4.213434e+04
3.994959e+04
3.787026e+04
3.589139e+04
3.400829e+04
3.221647e+04
3.051167e+04
2.888982e+04
2.802814e+04
1.121363e+04
1.210919e+04
1.340502e+04
1.484311e+04
1.643972e+04
1.821303e+04
2.018345e+04
2.237393e+04
2.481022e+04
2.752134e+04
3.053996e+04
3.390298e+04
3.765205e+04
4.183435e+04
4.650329e+04
5.167914e+04
5.684833e+04
6.176703e+04
6.636138e+04
7.058093e+04
7.263514e+04
7.071054e+04
6.716537e+04
6.378950e+04
6.057496e+04
5.751412e+04
5.459975e+04
5.182494e+04
4.918312e+04
4.666803e+04
4.427372e+04
4.199449e+04
3.982495e+04
3.775995e+04
3.579458e+04
3.392418e+04
3.214429e+04
3.045068e+04
2.883932e+04
2.730636e+04
2.649191e+04
1.059901e+04
1.144548e+04
1.267029e+04
1.402956e+04
1.553865e+04
1.721477e+04
1.907720e+04
2.114761e+04
2.345037e+04
2.601289e+04
2.886606e+04
3.204475e+04
3.558834e+04
3.954140e+04
4.395444e+04
4.884660e+04
5.373246e+04
5.838157e+04
6.272410e+04
6.671238e+04
6.865400e+04
6.683488e+04
6.348402e+04
6.029319e+04
5.725483e+04
5.436176e+04
5.160713e+04
4.898441e+04
4.648739e+04
4.411015e+04
4.184707e+04
3.969277e+04
3.764214e+04
3.569032e+04
3.383267e+04
3.206479e+04
3.038246e+04
2.878168e+04
2.725863e+04
2.580970e+04
2.503989e+04
1.001808e+04
1.081816e+04
1.197583e+04
1.326060e+04
1.468698e+04
1.627122e+04
1.803157e+04
1.998850e+04
2.216505e+04
2.458711e+04
2.728391e+04
3.028837e+04
3.363774e+04
3.737413e+04
4.154529e+04
4.616931e+04
5.078738e+04
5.518166e+04
5.928618e+04
6.305586e+04
6.489106e+04
6.317165e+04
6.000445e+04
5.698851e+04
5.411669e+04
5.138219e+04
4.877853e+04
4.629956e+04
4.393941e+04
4.169247e+04
3.955342e+04
3.751720e+04
3.557897e+04
3.373413e+04
3.197830e+04
3.030731e+04
2.871719e+04
2.720415e+04
2.576458e+04
2.439506e+04
2.366744e+04
9.468984e+03
1.022521e+04
1.131943e+04
1.253378e+04
1.388198e+04
1.537939e+04
1.704326e+04
1.889293e+04
2.095018e+04
2.323949e+04
2.578847e+04
2.862826e+04
3.179405e+04
3.532564e+04
3.926819e+04
4.363876e+04
4.800371e+04
5.215715e+04
5.603670e+04
5.959976e+04
6.133437e+04
5.970920e+04
5.671560e+04
5.386496e+04
5.115054e+04
4.856592e+04
4.610497e+04
4.376188e+04
4.153108e+04
3.940729e+04
3.738549e+04
3.546087e+04
3.362888e+04
3.188515e+04
3.022556e+04
2.864616e+04
2.714319e+04
2.571308e+04
2.435242e+04
2.305797e+04
2.237023e+04
8.949987e+03
9.664765e+03
1.069901e+04
1.184680e+04
1.312111e+04
1.453645e+04
1.610911e+04
1.785741e+04
1.980189e+04
2.196573e+04
2.437500e+04
2.705914e+04
3.005141e+04
3.338944e+04
3.711589e+04
4.124691e+04
4.537262e+04
4.929841e+04
5.296532e+04
5.633308e+04
5.797262e+04
5.643653e+04
5.360700e+04
5.091261e+04
4.834697e+04
4.590401e+04
4.357795e+04
4.136328e+04
3.925475e+04
3.724737e+04
3.533639e+04
3.351726e+04
3.178567e+04
3.013752e+04
2.856890e+04
2.707606e+04
2.565547e+04
2.430374e+04
2.301766e+04
2.179415e+04
2.114411e+04
8.459437e+03
9.135037e+03
1.011259e+04
1.119748e+04
1.240194e+04
1.373970e+04
1.522617e+04
1.687864e+04
1.871655e+04
2.076178e+04
2.303900e+04
2.557602e+04
2.840429e+04
3.155936e+04
3.508156e+04
3.898616e+04
4.288574e+04
4.659635e+04
5.006228e+04
5.324546e+04
5.479513e+04
5.334323e+04
5.066879e+04
4.812208e+04
4.569707e+04
4.338801e+04
4.118944e+04
3.909615e+04
3.710319e+04
3.520584e+04
3.339959e+04
3.168017e+04
3.004349e+04
2.848568e+04
2.700303e+04
2.559202e+04
2.424929e+04
2.297165e+04
2.175606e+04
2.059961e+04
1.998520e+04
7.995774e+03
8.634344e+03
9.558321e+03
1.058374e+04
1.172218e+04
1.298663e+04
1.439162e+04
1.595352e+04
1.769069e+04
1.962383e+04
2.177623e+04
2.417420e+04
2.684744e+04
2.982958e+04
3.315873e+04
3.684932e+04
4.053516e+04
4.404240e+04
4.731836e+04
5.032707e+04
5.179180e+04
5.041948e+04
4.789163e+04
4.548450e+04
4.319240e+04
4.100990e+04
3.893184e+04
3.695328e+04
3.506956e+04
3.327620e+04
3.156895e+04
2.994377e+04
2.839680e+04
2.692438e+04
2.552299e+04
2.418931e+04
2.292018e+04
2.171257e+04
2.056361e+04
1.947054e+04
1.888981e+04
7.557524e+03
8.161095e+03
9.034428e+03
1.000365e+04
1.107969e+04
1.227483e+04
1.360281e+04
1.507910e+04
1.672106e+04
1.854824e+04
2.058267e+04
2.284921e+04
2.537593e+04
2.819462e+04
3.134130e+04
3.482961e+04
3.831343e+04
4.162843e+04
4.472483e+04
4.756863e+04
4.895308e+04
4.765598e+04
4.526668e+04
4.299149e+04
4.082502e+04
3.876214e+04
3.679798e+04
3.492787e+04
3.314739e+04
3.145233e+04
2.983865e+04
2.830255e+04
2.684037e+04
2.544865e+04
2.412407e+04
2.286349e+04
2.166392e+04
2.052250e+04
1.943651e+04
1.840336e+04
1.785445e+04
7.350409e+03
7.937439e+03
8.786838e+03
9.729494e+03
1.077605e+04
1.193843e+04
1.323003e+04
1.466586e+04
1.626282e+04
1.803993e+04
2.001860e+04
2.222302e+04
2.468050e+04
2.742194e+04
3.048239e+04
3.387510e+04
3.726344e+04
4.048759e+04
4.349914e+04
4.626501e+04
4.761152e+04
4.634996e+04
4.402614e+04
4.181330e+04
3.970620e+04
3.769986e+04
3.578952e+04
3.397067e+04
3.223898e+04
3.059037e+04
2.902092e+04
2.752692e+04
2.610481e+04
2.475122e+04
2.346295e+04
2.223692e+04
2.107022e+04
1.996008e+04
1.890385e+04
1.789901e+04
1.736515e+04
SCALARS xi_x double
LOOKUP_TABLE default
6.896817e+01
7.064412e+01
7.416297e+01
7.785711e+01
8.173525e+01
8.580657e+01
9.008069e+01
9.456770e+01
9.927822e+01
1.042234e+02
1.094148e+02
1.148649e+02
1.205865e+02
1.265930e+02
1.328987e+02
1.395185e+02
1.464681e+02
1.537638e+02
1.614230e+02
1.694636e+02
1.736842e+02
1.694636e+02
1.614230e+02
1.537638e+02
1.464681e+02
1.395185e+02
1.328987e+02
1.265930e+02
1.205865e+02
1.148649e+02
1.094148e+02
1.042234e+02
9.927822e+01
9.456770e+01
9.008069e+01
8.580657e+01
8.173525e+01
7.785711e+01
7.416297e+01
7.064412e+01
6.896817e+01
6.896817e+01
7.064412e+01
7.416297e+01
7.785711e+01
8.173525e+01
8.580657e+01
9.008069e+01
9.456770e+01
9.927822e+01
1.042234e+02
1.094148e+02
1.148649e+02
1.205865e+02
1.265930e+02
1.328987e+02
1.395185e+02
1.464681e+02
1.537638e+02
1.614230e+02
1.694636e+02
1.736842e+02
1.694636e+02
1.614230e+02
1.537638e+02
1.464681e+02
1.395185e+02
1.328987e+02
1.265930e+02
1.205865e+02
1.148649e+02
1.094148e+02
1.042234e+02
9.927822e+01
9.456770e+01
9.008069e+01
8.580657e+01
8.173525e+01
7.785711e+01
7.416297e+01
7.064412e+01
6.896817e+01
6.896817e+01
7.064412e+01
7.416297e+01
7.785711e+01
8.173525e+01
8.580657e+01
9.008069e+01
9.456770e+01
9.927822e+01
1.042234e+02
1.094148e+02
1.148649e+02
1.205865e+02
1.265930e+02
1.328987e+02
1.395185e+02
1.464681e+02
1.537638e+02
1.614230e+02
1.694636e+02
1.736842e+02
1.694636e+02
1.614230e+02
1.537638e+02
1.464681e+02
1.395185e+02
1.328987e+02
1.265930e+02
1.205865e+02
1.148649e+02
1.094148e+02
1.042234e+02
9.927822e+01
9.456770e+01
9.008069e+01
8.580657e+01
8.173525e+01
7.785711e+01
7.416297e+01
7.064412e+01
6.896817e+01
6.896817e+01
7.064412e+01
7.416297e+01
7.785711e+01
8.173525e+01
8.580657e+01
9.008069e+01
9.456770e+01
9.927822e+01
1.042234e+02
1.094148e+02
1.148649e+02
1.205865e+02
1.265930e+02
1.328987e+02
1.395185e+02
1.464681e+02
1.537638e+02
1.614230e+02
1.694636e+02
1.736842e+02
1.694636e+02
1.614230e+02
1.537638e+02
1.464681e+02
1.395185e+02
1.328987e+02
1.265930e+02
1.205865e+02
1.148649e+02
1.094148e+02
1.042234e+02
9.927822e+01
9.456770e+01
9.008069e+01
8.580657e+01
8.173525e+01
7.785711e+01
7.416297e+01
7.064412e+01
6.896817e+01
6.896817e+01
7.064412e+01
7.416297e+01
7.785711e+01
8.173525e+01
8.580657e+01
9.008069e+01
9.456770e+01
9.927822e+01
1.042234e+02
1.094148e+02
1.148649e+02
1.205865e+02
1.265930e+02
1.328987e+02
1.395185e+02
1.464681e+02
1.537638e+02
1.614230e+02
1.694636e+02
1.736842e+02
1.694636e+02
1.614230e+02
1.537638e+02
1.464681e+02
1.395185e+02
1.328987e+02
1.265930e+02
1.205865e+02
1.148649e+02
1.094148e+02
1.042234e+02
9.927822e+01
9.456770e+01
9.008069e+01
8.580657e+01
8.173525e+01
7.785711e+01
7.416297e+01
7.064412e+01
6.896817e+01
6.896817e+01
7.064412e+01
7.416297e+01
7.785711e+01
8.173525e+01
8.580657e+01
9.008069e+01
9.456770e+01
9.927822e+01
1.042234e+02
1.094148e+02
1.148649e+02
1.205865e+02
1.265930e+02
1.328987e+02
1.395185e+02
1.464681e+02
1.537638e+02
1.614230e+02
1.694636e+02
1.736842e+02
1.694636e+02
1.614230e+02
1.537638e+02
1.464681e+02
1.395185e+02
1.328987e+02
1.265930e+02
1.205865e+02
1.148649e+02
1.094148e+02
1.042234e+02
9.927822e+01
9.456770e+01
9.008069e+01
8.580657e+01
8.173525e+01
7.785711e+01
7.416297e+01
7.064412e+01
6.896817e+01
6.896817e+01
7.064412e+01
7.416297e+01
7.785711e+01
8.173525e+01
8.580657e+01
9.008069e+01
9.456770e+01
9.927822e+01
1.042234e+02
1.094148e+02
1.148649e+02
1.205865e+02
1.265930e+02
1.328987e+02
1.395185e+02
1.464681e+02
1.537638e+02
1.614230e+02
1.694636e+02
1.736842e+02
1.694636e+02
1.614230e+02
1.537638e+02
1.464681e+02
1.395185e+02
1.328987e+02
1.265930e+02
1.205865e+02
1.148649e+02
1.094148e+02
1.042234e+02
9.927822e+01
9.456770e+01
9.008069e+01
8.580657e+01
8.173525e+01
7.785711e+01
7.416297e+01
7.064412e+01
6.896817e+01
6.896817e+01
7.064412e+01
7.416297e+01
7.785711e+01
8.173525e+01
8.580657e+01
9.008069e+01
9.456770e+01
9.927822e+01
1.042234e+02
1.094148e+02
1.148649e+02
1.205865e+02
1.265930e+02
1.328987e+02
1.395185e+02
1.464681e+02
1.537638e+02
1.614230e+02
1.694636e+02
1.736842e+02
1.694636e+02
1.614230e+02
1.537638e+02
1.464681e+02
1.395185e+02
1.328987e+02
1.265930e+02
1.205865e+02
1.148649e+02
1.094148e+02
1.042234e+02
9.927822e+01
9.456770e+01
9.008069e+01
8.580657e+01
8.173525e+01
7.785711e+01
7.416297e+01
7.064412e+01
6.896817e+01
6.896817e+01
7.064412e+01
7.416297e+01
7.785711e+01
8.173525e+01
8.580657e+01
9.008069e+01
9.456770e+01
9.927822e+01
1.042234e+02
1.094148e+02
1.148649e+02
1.205865e+02
1.265930e+02
1.328987e+02
1.395185e+02
1.464681e+02
1.537638e+02
1.614230e+02
1.694636e+02
1.736842e+02
1.694636e+02
1.614230e+02
1.537638e+02
1.464681e+02
1.395185e+02
1.328987e+02
1.265930e+02
1.205865e+02
1.148649e+02
1.094148e+02
1.042234e+02
9.927822e+01
9.456770e+01
9.008069e+01
8.580657e+01
8.173525e+01
7.785711e+01
7.416297e+01
7.064412e+01
6.896817e+01
6.896817e+01
7.064412e+01
7.416297e+01
7.785711e+01
8.173525e+01
8.580657e+01
9.008069e+01
9.456770e+01
9.927822e+01
1.042234e+02
1.094148e+02
1.148649e+02
1.205865e+02
1.265930e+02
1.328987e+02
1.395185e+02
1.464681e+02
1.537638e+02
1.614230e+02
1.694636e+02
1.736842e+02
1.694636e+02
1.614230e+02
1.537638e+02
1.464681e+02
1.395185e+02
1.328987e+02
1.265930e+02
1.205865e+02
1.148649e+02
1.094148e+02
1.042234e+02
9.927822e+01
9.456770e+01
9.008069e+01
8.580657e+01
8.173525e+01
7.785711e+01
7.416297e+01
7.064412e+01
6.896817e+01
6.896817e+01
7.064412e+01
7.416297e+01
7.785711e+01
8.173525e+01
8.580657e+01
9.008069e+01
9.456770e+01
9.927822e+01
1.042234e+02
1.094148e+02
1.148649e+02
1.205865e+02
1.265930e+02
1.328987e+02
1.395185e+02
1.464681e+02
1.537638e+02
1.614230e+02
1.694636e+02
1.736842e+02
1.694636e+02
1.614230e+02
1.537638e+02
1.464681e+02
1.395185e+02
1.328987e+02
1.265930e+02
1.205865e+02
1.148649e+02
1.094148e+02
1.042234e+02
9.927822e+01
9.456770e+01
9.008069e+01
8.580657e+01
8.173525e+01
7.785711e+01
7.416297e+01
7.064412e+01
6.896817e+01
6.896817e+01
7.064412e+01
7.416297e+01
7.785711e+01
8.173525e+01
8.580657e+01
9.008069e+01
9.456770e+01
9.927822e+01
1.042234e+02
1.094148e+02
1.148649e+02
1.205865e+02
1.265930e+02
1.328987e+02
1.395185e+02
1.464681e+02
1.537638e+02
1.614230e+02
1.694636e+02
1.736842e+02
1.694636e+02
1.614230e+02
1.537638e+02
1.464681e+02
1.395185e+02
1.328987e+02
1.265930e+02
1.205865e+02
1.148649e+02
1.094148e+02
1.042234e+02
9.927822e+01
9.456770e+01
9.008069e+01
8.580657e+01
8.173525e+01
7.785711e+01
7.416297e+01
7.064412e+01
6.896817e+01
6.896817e+01
7.064412e+01
7.416297e+01
7.785711e+01
8.173525e+01
8.580657e+01
9.008069e+01
9.456770e+01
9.927822e+01
1.042234e+02
1.094148e+02
1.148649e+02
1.205865e+02
1.265930e+02
1.328987e+02
1.395185e+02
1.464681e+02
1.537638e+02
1.614230e+02
1.694636e+02
1.736842e+02
1.694636e+02
1.614230e+02
1.537638e+02
1.464681e+02
1.395185e+02
1.328987e+02
1.265930e+02
1.205865e+02
1.148649e+02
1.094148e+02
1.042234e+02
9.927822e+01
9.456770e+01
9.008069e+01
8.580657e+01
8.173525e+01
7.785711e+01
7.416297e+01
7.064412e+01
6.896817e+01
6.896817e+01
7.064412e+01
7.416297e+01
7.785711e+01
8.173525e+01
8.580657e+01
9.008069e+01
9.456770e+01
9.927822e+01
1.042234e+02
1.094148e+02
1.148649e+02
1.205865e+02
1.265930e+02
1.328987e+02
1.395185e+02
1.464681e+02
1.537638e+02
1.614230e+02
1.694636e+02
1.736842e+02
1.694636e+02
1.614230e+02
1.537638e+02
1.464681e+02
1.395185e+02
1.328987e+02
1.265930e+02
1.205865e+02
1.148649e+02
1.094148e+02
1.042234e+02
9.927822e+01
9.456770e+01
9.008069e+01
8.580657e+01
8.173525e+01
7.785711e+01
7.416297e+01
7.064412e+01
6.896817e+01
6.896817e+01
7.064412e+01
7.416297e+01
7.785711e+01
8.173525e+01
8.580657e+01
9.008069e+01
9.456770e+01
9.927822e+01
1.042234e+02
1.094148e+02
1.148649e+02
1.205865e+02
1.265930e+02
1.328987e+02
1.395185e+02
1.464681e+02
1.537638e+02
1.614230e+02
1.694636e+02
1.736842e+02
1.694636e+02
1.614230e+02
1.537638e+02
1.464681e+02
1.395185e+02
1.328987e+02
1.265930e+02
1.205865e+02
1.148649e+02
1.094148e+02
1.042234e+02
9.927822e+01
9.456770e+01
9.008069e+01
8.580657e+01
8.173525e+01
7.785711e+01
7.416297e+01
7.064412e+01
6.896817e+01
6.896817e+01
7.064412e+01
7.416297e+01
7.785711e+01
8.173525e+01
8.580657e+01
9.008069e+01
9.456770e+01
9.927822e+01
1.042234e+02
1.094148e+02
1.148649e+02
1.205865e+02
1.265930e+02
1.328987e+02
1.395185e+02
1.464681e+02
1.537638e+02
1.614230e+02
1.694636e+02
1.736842e+02
1.694636e+02
1.614230e+02
1.537638e+02
1.464681e+02
1.395185e+02
1.328987e+02
1.265930e+02
1.205865e+02
1.148649e+02
1.094148e+02
1.042234e+02
9.927822e+01
9.456770e+01
9.008069e+01
8.580657e+01
8.173525e+01
7.785711e+01
7.416297e+01
7.064412e+01
6.896817e+01
6.896817e+01
7.064412e+01
7.416297e+01
7.785711e+01
8.173525e+01
8.580657e+01
9.008069e+01
9.456770e+01
9.927822e+01
1.042234e+02
1.094148e+02
1.148649e+02
1.205865e+02